 Entering Gaussian System, Link 0=g16
 Input=CH3BrCl-46.gjf
 Output=CH3BrCl-46.log
 Initial command:
 /home/xinyan/g16/l1.exe "/scratch/tmp/Gau-14947.inp" -scrdir="/scratch/tmp/"
 Entering Link 1 = /home/xinyan/g16/l1.exe PID=     14948.
  
 Copyright (c) 1988,1990,1992,1993,1995,1998,2003,2009,2016,
            Gaussian, Inc.  All Rights Reserved.
  
 This is part of the Gaussian(R) 16 program.  It is based on
 the Gaussian(R) 09 system (copyright 2009, Gaussian, Inc.),
 the Gaussian(R) 03 system (copyright 2003, Gaussian, Inc.),
 the Gaussian(R) 98 system (copyright 1998, Gaussian, Inc.),
 the Gaussian(R) 94 system (copyright 1995, Gaussian, Inc.),
 the Gaussian 92(TM) system (copyright 1992, Gaussian, Inc.),
 the Gaussian 90(TM) system (copyright 1990, Gaussian, Inc.),
 the Gaussian 88(TM) system (copyright 1988, Gaussian, Inc.),
 the Gaussian 86(TM) system (copyright 1986, Carnegie Mellon
 University), and the Gaussian 82(TM) system (copyright 1983,
 Carnegie Mellon University). Gaussian is a federally registered
 trademark of Gaussian, Inc.
  
 This software contains proprietary and confidential information,
 including trade secrets, belonging to Gaussian, Inc.
  
 This software is provided under written license and may be
 used, copied, transmitted, or stored only in accord with that
 written license.
  
 The following legend is applicable only to US Government
 contracts under FAR:
  
                    RESTRICTED RIGHTS LEGEND
  
 Use, reproduction and disclosure by the US Government is
 subject to restrictions as set forth in subparagraphs (a)
 and (c) of the Commercial Computer Software - Restricted
 Rights clause in FAR 52.227-19.
  
 Gaussian, Inc.
 340 Quinnipiac St., Bldg. 40, Wallingford CT 06492
  
  
 ---------------------------------------------------------------
 Warning -- This program may not be used in any manner that
 competes with the business of Gaussian, Inc. or will provide
 assistance to any competitor of Gaussian, Inc.  The licensee
 of this program is prohibited from giving any competitor of
 Gaussian, Inc. access to this program.  By using this program,
 the user acknowledges that Gaussian, Inc. is engaged in the
 business of creating and licensing software in the field of
 computational chemistry and represents and warrants to the
 licensee that it is not a competitor of Gaussian, Inc. and that
 it will not use this program in any manner prohibited above.
 ---------------------------------------------------------------
  

 Cite this work as:
 Gaussian 16, Revision A.03,
 M. J. Frisch, G. W. Trucks, H. B. Schlegel, G. E. Scuseria, 
 M. A. Robb, J. R. Cheeseman, G. Scalmani, V. Barone, 
 G. A. Petersson, H. Nakatsuji, X. Li, M. Caricato, A. V. Marenich, 
 J. Bloino, B. G. Janesko, R. Gomperts, B. Mennucci, H. P. Hratchian, 
 J. V. Ortiz, A. F. Izmaylov, J. L. Sonnenberg, D. Williams-Young, 
 F. Ding, F. Lipparini, F. Egidi, J. Goings, B. Peng, A. Petrone, 
 T. Henderson, D. Ranasinghe, V. G. Zakrzewski, J. Gao, N. Rega, 
 G. Zheng, W. Liang, M. Hada, M. Ehara, K. Toyota, R. Fukuda, 
 J. Hasegawa, M. Ishida, T. Nakajima, Y. Honda, O. Kitao, H. Nakai, 
 T. Vreven, K. Throssell, J. A. Montgomery, Jr., J. E. Peralta, 
 F. Ogliaro, M. J. Bearpark, J. J. Heyd, E. N. Brothers, K. N. Kudin, 
 V. N. Staroverov, T. A. Keith, R. Kobayashi, J. Normand, 
 K. Raghavachari, A. P. Rendell, J. C. Burant, S. S. Iyengar, 
 J. Tomasi, M. Cossi, J. M. Millam, M. Klene, C. Adamo, R. Cammi, 
 J. W. Ochterski, R. L. Martin, K. Morokuma, O. Farkas, 
 J. B. Foresman, and D. J. Fox, Gaussian, Inc., Wallingford CT, 2016.
 
 ******************************************
 Gaussian 16:  ES64L-G16RevA.03 25-Dec-2016
                22-Jan-2019 
 ******************************************
 %nproc=5
 Will use up to    5 processors via shared memory.
 -------------------------------------------
 # M062X/6-311G** force nosymm int=ultrafine
 -------------------------------------------
 1/10=7,30=1,38=1/1,3;
 2/12=2,15=1,17=6,18=5,40=1/2;
 3/5=4,6=6,7=101,11=2,25=1,30=1,71=1,74=-55,75=-5/1,2,3;
 4//1;
 5/5=2,38=5/2;
 6/7=2,8=2,9=2,10=2,28=1/1;
 7/29=1,30=1/1,2,3,16;
 1/10=7,30=1/3;
 99//99;
 -----
 Title
 -----
 Symbolic Z-matrix:
 Charge = -1 Multiplicity = 1
 C                     1.30551   0.00022   0.00121 
 H                     0.97589  -0.83702   0.60073 
 H                     0.97599   0.93781   0.42707 
 H                     0.97448  -0.09974  -1.02318 
 Cl                    3.14025  -0.00006  -0.00021 
 Br                   -1.62733  -0.00002  -0.00015 
 

 GradGradGradGradGradGradGradGradGradGradGradGradGradGradGradGradGradGrad
 Berny optimization.
 Initialization pass.
 Trust Radius=3.00D-01 FncErr=1.00D-07 GrdErr=1.00D-07 EigMax=2.50D+02 EigMin=1.00D-04
 Number of steps in this run=      2 maximum allowed number of steps=      2.
 GradGradGradGradGradGradGradGradGradGradGradGradGradGradGradGradGradGrad

                          Input orientation:                          
 ---------------------------------------------------------------------
 Center     Atomic      Atomic             Coordinates (Angstroms)
 Number     Number       Type             X           Y           Z
 ---------------------------------------------------------------------
      1          6           0        1.305510    0.000220    0.001210
      2          1           0        0.975890   -0.837020    0.600730
      3          1           0        0.975990    0.937810    0.427070
      4          1           0        0.974480   -0.099740   -1.023180
      5         17           0        3.140250   -0.000060   -0.000210
      6         35           0       -1.627330   -0.000020   -0.000150
 ---------------------------------------------------------------------
                    Distance matrix (angstroms):
                    1          2          3          4          5
     1  C    0.000000
     2  H    1.081224   0.000000
     3  H    1.081210   1.783306   0.000000
     4  H    1.081179   1.783443   1.783182   0.000000
     5  Cl   1.834741   2.397099   2.397121   2.397283   0.000000
     6  Br   2.932840   2.799711   2.799878   2.797490   4.767580
                    6
     6  Br   0.000000
 Symmetry turned off by external request.
 Stoichiometry    CH3BrCl(1-)
 Framework group  C1[X(CH3BrCl)]
 Deg. of freedom    12
 Full point group                 C1      NOp   1
 Rotational constants (GHZ):         157.6793036           0.8732145           0.8732137
 Standard basis: 6-311G(d,p) (5D, 7F)
   106 basis functions,   195 primitive gaussians,   111 cartesian basis functions
    31 alpha electrons       31 beta electrons
       nuclear repulsion energy       174.1609120474 Hartrees.
 NAtoms=    6 NActive=    6 NUniq=    6 SFac= 1.00D+00 NAtFMM=   60 NAOKFM=F Big=F
 Integral buffers will be    131072 words long.
 Raffenetti 2 integral format.
 Two-electron integral symmetry is turned off.
 One-electron integrals computed using PRISM.
 NBasis=   106 RedAO= T EigKep=  1.08D-02  NBF=   106
 NBsUse=   106 1.00D-06 EigRej= -1.00D+00 NBFU=   106
 ExpMin= 1.03D-01 ExpMax= 4.40D+05 ExpMxC= 1.51D+04 IAcc=3 IRadAn=         5 AccDes= 0.00D+00
 Harris functional with IExCor= 1009 and IRadAn=       5 diagonalized for initial guess.
 HarFok:  IExCor= 1009 AccDes= 0.00D+00 IRadAn=         5 IDoV= 1 UseB2=F ITyADJ=14
 ICtDFT=  3500011 ScaDFX=  1.000000  1.000000  1.000000  1.000000
 FoFCou: FMM=F IPFlag=           0 FMFlag=      100000 FMFlg1=           0
         NFxFlg=           0 DoJE=T BraDBF=F KetDBF=T FulRan=T
         wScrn=  0.000000 ICntrl=       500 IOpCl=  0 I1Cent=   200000004 NGrid=           0
         NMat0=    1 NMatS0=      1 NMatT0=    0 NMatD0=    1 NMtDS0=    0 NMtDT0=    0
 Symmetry not used in FoFCou.
 Keep R1 ints in memory in canonical form, NReq=20756204.
 Requested convergence on RMS density matrix=1.00D-08 within 128 cycles.
 Requested convergence on MAX density matrix=1.00D-06.
 Requested convergence on             energy=1.00D-06.
 No special actions if energy rises.
 Integral accuracy reduced to 1.0D-05 until final iterations.
 Initial convergence to 1.0D-05 achieved.  Increase integral accuracy.
 SCF Done:  E(RM062X) =  -3074.35572285     A.U. after   14 cycles
            NFock= 14  Conv=0.31D-08     -V/T= 2.0013

 **********************************************************************

            Population analysis using the SCF density.

 **********************************************************************

 Alpha  occ. eigenvalues -- -485.04012-102.52339 -63.03243 -56.85825 -56.85823
 Alpha  occ. eigenvalues --  -56.85823 -10.43982  -9.66565  -8.71845  -7.39009
 Alpha  occ. eigenvalues --   -7.38453  -7.38453  -6.53998  -6.53968  -6.53968
 Alpha  occ. eigenvalues --   -2.57185  -2.57175  -2.57175  -2.57153  -2.57153
 Alpha  occ. eigenvalues --   -0.80294  -0.62217  -0.55347  -0.36603  -0.36600
 Alpha  occ. eigenvalues --   -0.32364  -0.22834  -0.22833  -0.09305  -0.09304
 Alpha  occ. eigenvalues --   -0.09184
 Alpha virt. eigenvalues --    0.20968   0.23742   0.28798   0.28805   0.43582
 Alpha virt. eigenvalues --    0.46699   0.46701   0.47409   0.47410   0.53094
 Alpha virt. eigenvalues --    0.56539   0.56545   0.61691   0.72304   0.73957
 Alpha virt. eigenvalues --    0.76925   0.76932   0.87655   0.94905   0.94906
 Alpha virt. eigenvalues --    0.95649   0.95653   1.00620   1.02500   1.02501
 Alpha virt. eigenvalues --    1.08742   1.08745   1.18129   1.25738   1.33057
 Alpha virt. eigenvalues --    1.33061   1.63357   1.66357   1.66363   1.87427
 Alpha virt. eigenvalues --    1.87430   1.89505   2.07205   2.17265   2.17274
 Alpha virt. eigenvalues --    2.27173   2.27178   2.28118   2.39386   2.39393
 Alpha virt. eigenvalues --    2.54893   2.55091   2.59870   2.59876   2.70093
 Alpha virt. eigenvalues --    2.70102   3.10601   3.31555   3.91318   3.91340
 Alpha virt. eigenvalues --    4.56584   4.56586   4.57557   4.57562   4.70801
 Alpha virt. eigenvalues --    6.79401   7.82043   7.82047   7.87917   9.86465
 Alpha virt. eigenvalues --   24.08586  25.69975  25.69978  26.24353  48.38088
 Alpha virt. eigenvalues --  215.91689 290.98622 290.98624 291.044931020.86660
          Condensed to atoms (all electrons):
               1          2          3          4          5          6
     1  C    5.074872   0.408771   0.408759   0.408807   0.129881  -0.037923
     2  H    0.408771   0.506828  -0.020640  -0.020606  -0.060081  -0.003372
     3  H    0.408759  -0.020640   0.506871  -0.020635  -0.060069  -0.003364
     4  H    0.408807  -0.020606  -0.020635   0.506646  -0.060070  -0.003405
     5  Cl   0.129881  -0.060081  -0.060069  -0.060070  17.302431   0.011152
     6  Br  -0.037923  -0.003372  -0.003364  -0.003405   0.011152  35.947940
 Mulliken charges:
               1
     1  C   -0.393167
     2  H    0.189100
     3  H    0.189078
     4  H    0.189263
     5  Cl  -0.263244
     6  Br  -0.911030
 Sum of Mulliken charges =  -1.00000
 Mulliken charges with hydrogens summed into heavy atoms:
               1
     1  C    0.174274
     5  Cl  -0.263244
     6  Br  -0.911030
 Electronic spatial extent (au):  <R**2>=           1105.1985
 Charge=             -1.0000 electrons
 Dipole moment (field-independent basis, Debye):
    X=              3.2537    Y=              0.0007    Z=              0.0026  Tot=              3.2537
 Quadrupole moment (field-independent basis, Debye-Ang):
   XX=            -71.6591   YY=            -43.1819   ZZ=            -43.1806
   XY=              0.0002   XZ=              0.0017   YZ=             -0.0006
 Traceless Quadrupole moment (field-independent basis, Debye-Ang):
   XX=            -18.9853   YY=              9.4920   ZZ=              9.4933
   XY=              0.0002   XZ=              0.0017   YZ=             -0.0006
 Octapole moment (field-independent basis, Debye-Ang**2):
  XXX=            -78.1864  YYY=              0.2601  ZZZ=             -0.8727  XYY=            -16.1483
  XXY=              0.0006  XXZ=             -0.0001  XZZ=            -16.1510  YZZ=             -0.2611
  YYZ=              0.8647  XYZ=             -0.0004
 Hexadecapole moment (field-independent basis, Debye-Ang**3):
 XXXX=          -1463.8481 YYYY=            -63.7535 ZZZZ=            -63.7547 XXXY=             -0.0068
 XXXZ=             -0.0472 YYYX=              0.2720 YYYZ=              0.0009 ZZZX=             -0.9289
 ZZZY=             -0.0020 XXYY=           -231.3564 XXZZ=           -231.3569 YYZZ=            -21.2481
 XXYZ=             -0.0014 YYXZ=              0.9004 ZZXY=             -0.2736
 N-N= 1.741609120474D+02 E-N=-7.703313301368D+03  KE= 3.070269017231D+03
 Calling FoFJK, ICntrl=      2127 FMM=F ISym2X=0 I1Cent= 0 IOpClX= 0 NMat=1 NMatS=1 NMatT=0.
 -------------------------------------------------------------------
 Center     Atomic                   Forces (Hartrees/Bohr)
 Number     Number              X              Y              Z
 -------------------------------------------------------------------
      1        6           0.003961955    0.000007368    0.000030552
      2        1           0.000690988    0.000234603   -0.000166102
      3        1           0.000692943   -0.000252046   -0.000113312
      4        1           0.000682796    0.000027864    0.000273651
      5       17           0.006208001   -0.000004532   -0.000011770
      6       35          -0.012236682   -0.000013257   -0.000013019
 -------------------------------------------------------------------
 Cartesian Forces:  Max     0.012236682 RMS     0.003379947

 GradGradGradGradGradGradGradGradGradGradGradGradGradGradGradGradGradGrad
 Berny optimization.
 Search for a local minimum.
 Step number   1 out of a maximum of    2
 All quantities printed in internal units (Hartrees-Bohrs-Radians)
 Second derivative matrix not updated -- first step.
 The second derivative matrix:
                          X1        Y1        Z1        X2        Y2
           X1           0.53640
           Y1           0.00001   0.64626
           Z1           0.00016  -0.00006   0.64637
           X2          -0.10019  -0.07721   0.05526   0.08387
           Y2          -0.06723  -0.24477   0.11632   0.07147   0.23880
           Z2           0.04812   0.11634  -0.16564  -0.05116  -0.12783
           X3          -0.10016   0.08643   0.03924   0.00814  -0.01084
           Y3           0.07527  -0.28607  -0.09254   0.00857  -0.01204
           Z3           0.03418  -0.09255  -0.12437  -0.01257   0.01811
           X4          -0.10045  -0.00926  -0.09482   0.00817   0.00660
           Y4          -0.00807  -0.08465  -0.02372   0.01470   0.01336
           Z4          -0.08261  -0.02373  -0.32557  -0.00408  -0.00344
           X5          -0.23561   0.00003   0.00016   0.00001  -0.00000
           Y5           0.00003  -0.03077   0.00000  -0.01753   0.00465
           Z5           0.00016   0.00000  -0.03079   0.01255  -0.00317
           X6           0.00000   0.00000   0.00000   0.00000   0.00000
           Y6           0.00000   0.00000   0.00000   0.00000   0.00000
           Z6           0.00000   0.00000   0.00000   0.00000   0.00000
                          Z2        X3        Y3        Z3        X4
           Z2           0.15183
           X3          -0.01067   0.08385
           Y3          -0.01210  -0.08002   0.28418
           Z3           0.01838  -0.03634   0.10169   0.10649
           X4           0.01371   0.00817  -0.00382   0.01472   0.08412
           Y4           0.02674  -0.01521   0.00817  -0.02975   0.00857
           Z4          -0.00704  -0.00115   0.00044  -0.00185   0.08784
           X5           0.00000   0.00001   0.00000   0.00000  -0.00002
           Y5          -0.00315   0.01964   0.00576   0.00250  -0.00209
           Z5           0.00247   0.00891   0.00252   0.00135  -0.02145
           X6           0.00000   0.00000   0.00000   0.00000   0.00000
           Y6           0.00000   0.00000   0.00000   0.00000   0.00000
           Z6           0.00000   0.00000   0.00000   0.00000   0.00000
                          Y4        Z4        X5        Y5        Z5
           Y4           0.06284
           Z4           0.02608   0.32759
           X5           0.00000   0.00001   0.23561
           Y5           0.00028   0.00065  -0.00003   0.02008
           Z5           0.00065   0.00687  -0.00017  -0.00000   0.02009
           X6           0.00000   0.00000   0.00000   0.00000   0.00000
           Y6           0.00000   0.00000   0.00000   0.00000   0.00000
           Z6           0.00000   0.00000   0.00000   0.00000   0.00000
                          X6        Y6        Z6
           X6           1.00000
           Y6           0.00000   1.00000
           Z6           0.00000   0.00000   1.00000
 ITU=  0
     Eigenvalues ---    0.02922   0.02922   0.07019   0.07020   0.09022
     Eigenvalues ---    0.13503   0.13504   0.28949   0.47415   0.75541
     Eigenvalues ---    0.93418   0.93435
 Angle between quadratic step and forces=  21.11 degrees.
 Linear search not attempted -- first point.
 B after Tr=    -0.004155   -0.000089   -0.000117
         Rot=    1.000000    0.000000    0.000005   -0.000004 Ang=   0.00 deg.
 Variable       Old X    -DE/DX   Delta X   Delta X   Delta X     New X
                                 (Linear)    (Quad)   (Total)
    X1        2.46706   0.00396   0.00000   0.01312   0.00896   2.47602
    Y1        0.00042   0.00001   0.00000   0.00013   0.00006   0.00048
    Z1        0.00229   0.00003   0.00000   0.00019   0.00010   0.00239
    X2        1.84416   0.00069   0.00000   0.00483   0.00068   1.84484
    Y2       -1.58174   0.00023   0.00000   0.00252   0.00245  -1.57929
    Z2        1.13522  -0.00017   0.00000  -0.00150  -0.00160   1.13362
    X3        1.84435   0.00069   0.00000   0.00501   0.00083   1.84519
    Y3        1.77220  -0.00025   0.00000  -0.00247  -0.00254   1.76966
    Z3        0.80705  -0.00011   0.00000  -0.00098  -0.00108   0.80596
    X4        1.84150   0.00068   0.00000   0.00468   0.00054   1.84204
    Y4       -0.18848   0.00003   0.00000   0.00043   0.00036  -0.18813
    Z4       -1.93353   0.00027   0.00000   0.00311   0.00301  -1.93052
    X5        5.93421   0.00621   0.00000   0.01710   0.01294   5.94715
    Y5       -0.00011  -0.00000   0.00000  -0.00010  -0.00015  -0.00026
    Z5       -0.00040  -0.00001   0.00000  -0.00014  -0.00020  -0.00059
    X6       -3.07521  -0.01224   0.00000  -0.01980  -0.02395  -3.09916
    Y6       -0.00004  -0.00001   0.00000  -0.00007  -0.00018  -0.00022
    Z6       -0.00028  -0.00001   0.00000  -0.00009  -0.00024  -0.00052
         Item               Value     Threshold  Converged?
 Maximum Force            0.012237     0.000450     NO 
 RMS     Force            0.003380     0.000300     NO 
 Maximum Displacement     0.023954     0.001800     NO 
 RMS     Displacement     0.006866     0.001200     NO 
 Predicted change in Energy=-1.154776D-04
 GradGradGradGradGradGradGradGradGradGradGradGradGradGradGradGradGradGrad

 1\1\GINC-FS\Force\RM062X\6-311G(d,p)\C1H3Br1Cl1(1-)\XINYAN\22-Jan-2019
 \0\\# M062X/6-311G** force nosymm int=ultrafine\\Title\\-1,1\C,1.30551
 ,0.00022,0.00121\H,0.97589,-0.83702,0.60073\H,0.97599,0.93781,0.42707\
 H,0.97448,-0.09974,-1.02318\Cl,3.14025,-0.00006,-0.00021\Br,-1.62733,-
 0.00002,-0.00015\\Version=ES64L-G16RevA.03\HF=-3074.3557228\RMSD=3.108
 e-09\RMSF=3.380e-03\Dipole=1.502773,0.0003035,0.0011201\Quadrupole=-14
 .1150689,7.0570515,7.0580174,0.0001704,0.001252,-0.0004329\PG=C01 [X(C
 1H3Br1Cl1)]\\@


 CURIOUSER AND CURIOUSER

                  -- ALICE, IN WONDERLAND
 Job cpu time:       0 days  0 hours  0 minutes 35.9 seconds.
 Elapsed time:       0 days  0 hours  0 minutes  7.8 seconds.
 File lengths (MBytes):  RWF=     10 Int=      0 D2E=      0 Chk=      2 Scr=      1
 Normal termination of Gaussian 16 at Tue Jan 22 16:55:45 2019.
