 Entering Gaussian System, Link 0=g16
 Input=CH3BrCl-24.gjf
 Output=CH3BrCl-24.log
 Initial command:
 /home/xinyan/g16/l1.exe "/scratch/tmp/Gau-13352.inp" -scrdir="/scratch/tmp/"
 Entering Link 1 = /home/xinyan/g16/l1.exe PID=     13353.
  
 Copyright (c) 1988,1990,1992,1993,1995,1998,2003,2009,2016,
            Gaussian, Inc.  All Rights Reserved.
  
 This is part of the Gaussian(R) 16 program.  It is based on
 the Gaussian(R) 09 system (copyright 2009, Gaussian, Inc.),
 the Gaussian(R) 03 system (copyright 2003, Gaussian, Inc.),
 the Gaussian(R) 98 system (copyright 1998, Gaussian, Inc.),
 the Gaussian(R) 94 system (copyright 1995, Gaussian, Inc.),
 the Gaussian 92(TM) system (copyright 1992, Gaussian, Inc.),
 the Gaussian 90(TM) system (copyright 1990, Gaussian, Inc.),
 the Gaussian 88(TM) system (copyright 1988, Gaussian, Inc.),
 the Gaussian 86(TM) system (copyright 1986, Carnegie Mellon
 University), and the Gaussian 82(TM) system (copyright 1983,
 Carnegie Mellon University). Gaussian is a federally registered
 trademark of Gaussian, Inc.
  
 This software contains proprietary and confidential information,
 including trade secrets, belonging to Gaussian, Inc.
  
 This software is provided under written license and may be
 used, copied, transmitted, or stored only in accord with that
 written license.
  
 The following legend is applicable only to US Government
 contracts under FAR:
  
                    RESTRICTED RIGHTS LEGEND
  
 Use, reproduction and disclosure by the US Government is
 subject to restrictions as set forth in subparagraphs (a)
 and (c) of the Commercial Computer Software - Restricted
 Rights clause in FAR 52.227-19.
  
 Gaussian, Inc.
 340 Quinnipiac St., Bldg. 40, Wallingford CT 06492
  
  
 ---------------------------------------------------------------
 Warning -- This program may not be used in any manner that
 competes with the business of Gaussian, Inc. or will provide
 assistance to any competitor of Gaussian, Inc.  The licensee
 of this program is prohibited from giving any competitor of
 Gaussian, Inc. access to this program.  By using this program,
 the user acknowledges that Gaussian, Inc. is engaged in the
 business of creating and licensing software in the field of
 computational chemistry and represents and warrants to the
 licensee that it is not a competitor of Gaussian, Inc. and that
 it will not use this program in any manner prohibited above.
 ---------------------------------------------------------------
  

 Cite this work as:
 Gaussian 16, Revision A.03,
 M. J. Frisch, G. W. Trucks, H. B. Schlegel, G. E. Scuseria, 
 M. A. Robb, J. R. Cheeseman, G. Scalmani, V. Barone, 
 G. A. Petersson, H. Nakatsuji, X. Li, M. Caricato, A. V. Marenich, 
 J. Bloino, B. G. Janesko, R. Gomperts, B. Mennucci, H. P. Hratchian, 
 J. V. Ortiz, A. F. Izmaylov, J. L. Sonnenberg, D. Williams-Young, 
 F. Ding, F. Lipparini, F. Egidi, J. Goings, B. Peng, A. Petrone, 
 T. Henderson, D. Ranasinghe, V. G. Zakrzewski, J. Gao, N. Rega, 
 G. Zheng, W. Liang, M. Hada, M. Ehara, K. Toyota, R. Fukuda, 
 J. Hasegawa, M. Ishida, T. Nakajima, Y. Honda, O. Kitao, H. Nakai, 
 T. Vreven, K. Throssell, J. A. Montgomery, Jr., J. E. Peralta, 
 F. Ogliaro, M. J. Bearpark, J. J. Heyd, E. N. Brothers, K. N. Kudin, 
 V. N. Staroverov, T. A. Keith, R. Kobayashi, J. Normand, 
 K. Raghavachari, A. P. Rendell, J. C. Burant, S. S. Iyengar, 
 J. Tomasi, M. Cossi, J. M. Millam, M. Klene, C. Adamo, R. Cammi, 
 J. W. Ochterski, R. L. Martin, K. Morokuma, O. Farkas, 
 J. B. Foresman, and D. J. Fox, Gaussian, Inc., Wallingford CT, 2016.
 
 ******************************************
 Gaussian 16:  ES64L-G16RevA.03 25-Dec-2016
                22-Jan-2019 
 ******************************************
 %nproc=5
 Will use up to    5 processors via shared memory.
 -------------------------------------------
 # M062X/6-311G** force nosymm int=ultrafine
 -------------------------------------------
 1/10=7,30=1,38=1/1,3;
 2/12=2,15=1,17=6,18=5,40=1/2;
 3/5=4,6=6,7=101,11=2,25=1,30=1,71=1,74=-55,75=-5/1,2,3;
 4//1;
 5/5=2,38=5/2;
 6/7=2,8=2,9=2,10=2,28=1/1;
 7/29=1,30=1/1,2,3,16;
 1/10=7,30=1/3;
 99//99;
 -----
 Title
 -----
 Symbolic Z-matrix:
 Charge = -1 Multiplicity = 1
 C                     0.40457   0.00111   0.00137 
 H                     0.72823  -0.83493   0.60573 
 H                     0.72828   0.94277   0.42395 
 H                     0.72674  -0.10352  -1.02455 
 Cl                    3.38073  -0.00022  -0.00056 
 Br                   -1.58741  -0.00013  -0.00002 
 

 GradGradGradGradGradGradGradGradGradGradGradGradGradGradGradGradGradGrad
 Berny optimization.
 Initialization pass.
 Trust Radius=3.00D-01 FncErr=1.00D-07 GrdErr=1.00D-07 EigMax=2.50D+02 EigMin=1.00D-04
 Number of steps in this run=      2 maximum allowed number of steps=      2.
 GradGradGradGradGradGradGradGradGradGradGradGradGradGradGradGradGradGrad

                          Input orientation:                          
 ---------------------------------------------------------------------
 Center     Atomic      Atomic             Coordinates (Angstroms)
 Number     Number       Type             X           Y           Z
 ---------------------------------------------------------------------
      1          6           0        0.404570    0.001110    0.001370
      2          1           0        0.728230   -0.834930    0.605730
      3          1           0        0.728280    0.942770    0.423950
      4          1           0        0.726740   -0.103520   -1.024550
      5         17           0        3.380730   -0.000220   -0.000560
      6         35           0       -1.587410   -0.000130   -0.000020
 ---------------------------------------------------------------------
                    Distance matrix (angstroms):
                    1          2          3          4          5
     1  C    0.000000
     2  H    1.081189   0.000000
     3  H    1.081705   1.786970   0.000000
     4  H    1.080395   1.786834   1.786862   0.000000
     5  Cl   2.976161   2.846065   2.846916   2.846557   0.000000
     6  Br   1.991981   2.534958   2.535987   2.532912   4.968140
                    6
     6  Br   0.000000
 Symmetry turned off by external request.
 This structure is nearly, but not quite of a higher symmetry.
 Consider Symm=Loose if the higher symmetry is desired.
 Stoichiometry    CH3BrCl(1-)
 Framework group  C1[X(CH3BrCl)]
 Deg. of freedom    12
 Full point group                 C1      NOp   1
 Rotational constants (GHZ):         157.0467181           0.8371235           0.8371231
 Standard basis: 6-311G(d,p) (5D, 7F)
   106 basis functions,   195 primitive gaussians,   111 cartesian basis functions
    31 alpha electrons       31 beta electrons
       nuclear repulsion energy       178.4014344602 Hartrees.
 NAtoms=    6 NActive=    6 NUniq=    6 SFac= 1.00D+00 NAtFMM=   60 NAOKFM=F Big=F
 Integral buffers will be    131072 words long.
 Raffenetti 2 integral format.
 Two-electron integral symmetry is turned off.
 One-electron integrals computed using PRISM.
 NBasis=   106 RedAO= T EigKep=  9.97D-03  NBF=   106
 NBsUse=   106 1.00D-06 EigRej= -1.00D+00 NBFU=   106
 ExpMin= 1.03D-01 ExpMax= 4.40D+05 ExpMxC= 1.51D+04 IAcc=3 IRadAn=         5 AccDes= 0.00D+00
 Harris functional with IExCor= 1009 and IRadAn=       5 diagonalized for initial guess.
 HarFok:  IExCor= 1009 AccDes= 0.00D+00 IRadAn=         5 IDoV= 1 UseB2=F ITyADJ=14
 ICtDFT=  3500011 ScaDFX=  1.000000  1.000000  1.000000  1.000000
 FoFCou: FMM=F IPFlag=           0 FMFlag=      100000 FMFlg1=           0
         NFxFlg=           0 DoJE=T BraDBF=F KetDBF=T FulRan=T
         wScrn=  0.000000 ICntrl=       500 IOpCl=  0 I1Cent=   200000004 NGrid=           0
         NMat0=    1 NMatS0=      1 NMatT0=    0 NMatD0=    1 NMtDS0=    0 NMtDT0=    0
 Symmetry not used in FoFCou.
 Keep R1 ints in memory in canonical form, NReq=20756204.
 Requested convergence on RMS density matrix=1.00D-08 within 128 cycles.
 Requested convergence on MAX density matrix=1.00D-06.
 Requested convergence on             energy=1.00D-06.
 No special actions if energy rises.
 Integral accuracy reduced to 1.0D-05 until final iterations.
 Initial convergence to 1.0D-05 achieved.  Increase integral accuracy.
 SCF Done:  E(RM062X) =  -3074.35156735     A.U. after   13 cycles
            NFock= 13  Conv=0.29D-08     -V/T= 2.0014

 **********************************************************************

            Population analysis using the SCF density.

 **********************************************************************

 Alpha  occ. eigenvalues -- -485.19026-102.36225 -63.18250 -57.00967 -57.00752
 Alpha  occ. eigenvalues --  -57.00752 -10.44446  -9.50391  -8.86944  -7.22507
 Alpha  occ. eigenvalues --   -7.22484  -7.22484  -6.69631  -6.68774  -6.68774
 Alpha  occ. eigenvalues --   -2.72784  -2.72490  -2.72490  -2.71730  -2.71730
 Alpha  occ. eigenvalues --   -0.75497  -0.61860  -0.58823  -0.36371  -0.36336
 Alpha  occ. eigenvalues --   -0.29928  -0.20901  -0.20900  -0.10460  -0.10459
 Alpha  occ. eigenvalues --   -0.10422
 Alpha virt. eigenvalues --    0.17216   0.23822   0.28622   0.28637   0.43747
 Alpha virt. eigenvalues --    0.45621   0.45633   0.46810   0.46813   0.55810
 Alpha virt. eigenvalues --    0.56685   0.56785   0.56792   0.67363   0.76061
 Alpha virt. eigenvalues --    0.76098   0.77532   0.81561   0.81566   0.85310
 Alpha virt. eigenvalues --    0.85333   0.91955   1.01781   1.09687   1.23369
 Alpha virt. eigenvalues --    1.23370   1.23777   1.23778   1.29213   1.29227
 Alpha virt. eigenvalues --    1.31299   1.62738   1.65686   1.65701   1.83536
 Alpha virt. eigenvalues --    1.85470   1.85473   2.08315   2.09313   2.09335
 Alpha virt. eigenvalues --    2.27122   2.30783   2.30786   2.43633   2.43636
 Alpha virt. eigenvalues --    2.48818   2.55262   2.59772   2.59845   2.69699
 Alpha virt. eigenvalues --    2.69789   3.08232   3.18061   3.89670   3.89873
 Alpha virt. eigenvalues --    4.42635   4.42637   4.52657   4.52660   4.80799
 Alpha virt. eigenvalues --    6.70527   7.69884   7.69885   7.80124   9.88296
 Alpha virt. eigenvalues --   24.09043  25.78886  25.78890  25.94276  48.27192
 Alpha virt. eigenvalues --  215.91667 290.84578 290.84580 290.977691020.76673
          Condensed to atoms (all electrons):
               1          2          3          4          5          6
     1  C    5.032511   0.407587   0.407472   0.407751  -0.012458   0.154673
     2  H    0.407587   0.488447  -0.018161  -0.018030  -0.004472  -0.049292
     3  H    0.407472  -0.018161   0.488637  -0.018087  -0.004452  -0.049194
     4  H    0.407751  -0.018030  -0.018087   0.488377  -0.004494  -0.049497
     5  Cl  -0.012458  -0.004472  -0.004452  -0.004494  17.949569   0.007147
     6  Br   0.154673  -0.049292  -0.049194  -0.049497   0.007147  35.239471
 Mulliken charges:
               1
     1  C   -0.397537
     2  H    0.193920
     3  H    0.193784
     4  H    0.193980
     5  Cl  -0.930838
     6  Br  -0.253309
 Sum of Mulliken charges =  -1.00000
 Mulliken charges with hydrogens summed into heavy atoms:
               1
     1  C    0.184147
     5  Cl  -0.930838
     6  Br  -0.253309
 Electronic spatial extent (au):  <R**2>=           1166.6601
 Charge=             -1.0000 electrons
 Dipole moment (field-independent basis, Debye):
    X=            -11.7037    Y=              0.0024    Z=              0.0038  Tot=             11.7037
 Quadrupole moment (field-independent basis, Debye-Ang):
   XX=            -98.5981   YY=            -43.0195   ZZ=            -43.0177
   XY=              0.0060   XZ=              0.0142   YZ=             -0.0004
 Traceless Quadrupole moment (field-independent basis, Debye-Ang):
   XX=            -37.0530   YY=             18.5256   ZZ=             18.5274
   XY=              0.0060   XZ=              0.0142   YZ=             -0.0004
 Octapole moment (field-independent basis, Debye-Ang**2):
  XXX=           -261.8226  YYY=              0.2819  ZZZ=             -0.9143  XYY=            -27.1099
  XXY=              0.0035  XXZ=              0.0223  XZZ=            -27.1114  YZZ=             -0.2898
  YYZ=              0.9111  XYZ=             -0.0006
 Hexadecapole moment (field-independent basis, Debye-Ang**3):
 XXXX=          -2084.6472 YYYY=            -62.9959 ZZZZ=            -62.9919 XXXY=              0.0594
 XXXZ=              0.1908 YYYX=              0.2227 YYYZ=              0.0035 ZZZX=             -0.5804
 ZZZY=             -0.0039 XXYY=           -262.2328 XXZZ=           -262.2363 YYZZ=            -20.9948
 XXYZ=             -0.0017 YYXZ=              0.6869 ZZXY=             -0.2036
 N-N= 1.784014344602D+02 E-N=-7.709224543028D+03  KE= 3.070203682604D+03
 Calling FoFJK, ICntrl=      2127 FMM=F ISym2X=0 I1Cent= 0 IOpClX= 0 NMat=1 NMatS=1 NMatT=0.
 -------------------------------------------------------------------
 Center     Atomic                   Forces (Hartrees/Bohr)
 Number     Number              X              Y              Z
 -------------------------------------------------------------------
      1        6          -0.000322653    0.000327082    0.000581214
      2        1          -0.000063153    0.000027784   -0.000094633
      3        1          -0.000237441   -0.000322343   -0.000191442
      4        1           0.000239398   -0.000069406   -0.000376097
      5       17           0.002581717    0.000002477   -0.000005927
      6       35          -0.002197867    0.000034405    0.000086885
 -------------------------------------------------------------------
 Cartesian Forces:  Max     0.002581717 RMS     0.000832259

 GradGradGradGradGradGradGradGradGradGradGradGradGradGradGradGradGradGrad
 Berny optimization.
 Search for a local minimum.
 Step number   1 out of a maximum of    2
 All quantities printed in internal units (Hartrees-Bohrs-Radians)
 Second derivative matrix not updated -- first step.
 The second derivative matrix:
                          X1        Y1        Z1        X2        Y2
           X1           0.43936
           Y1          -0.00005   0.64437
           Z1           0.00012  -0.00016   0.64581
           X2          -0.09850   0.07695  -0.05565   0.08245
           Y2           0.06611  -0.24454   0.11650  -0.07017   0.23851
           Z2          -0.04780   0.11646  -0.16755   0.05078  -0.12843
           X3          -0.09837  -0.08646  -0.03883   0.00802   0.01074
           Y3          -0.07425  -0.28714  -0.09147  -0.00838  -0.01191
           Z3          -0.03334  -0.09143  -0.12433   0.01252   0.01831
           X4          -0.09844   0.00963   0.09444   0.00803  -0.00668
           Y4           0.00828  -0.08601  -0.02487  -0.01453   0.01377
           Z4           0.08113  -0.02486  -0.32727   0.00400  -0.00350
           X5           0.00000   0.00000   0.00000   0.00000   0.00000
           Y5           0.00000   0.00000   0.00000   0.00000   0.00000
           Z5           0.00000   0.00000   0.00000   0.00000   0.00000
           X6          -0.14405  -0.00007  -0.00008  -0.00000  -0.00000
           Y6          -0.00009  -0.02669   0.00000   0.01613   0.00418
           Z6          -0.00011   0.00000  -0.02665  -0.01165  -0.00288
                          Z2        X3        Y3        Z3        X4
           Z2           0.15366
           X3           0.01057   0.08231
           Y3          -0.01199   0.07884   0.28553
           Z3           0.01862   0.03542   0.10085   0.10603
           X4          -0.01354   0.00801   0.00380  -0.01460   0.08241
           Y4           0.02682   0.01502   0.00829  -0.02998  -0.00877
           Z4          -0.00699   0.00098   0.00035  -0.00153  -0.08611
           X5           0.00000   0.00000   0.00000   0.00000   0.00000
           Y5           0.00000   0.00000   0.00000   0.00000   0.00000
           Z5           0.00000   0.00000   0.00000   0.00000   0.00000
           X6           0.00000   0.00002  -0.00000  -0.00000  -0.00002
           Y6          -0.00286  -0.01814   0.00523   0.00225   0.00202
           Z6           0.00226  -0.00814   0.00226   0.00120   0.01981
                          Y4        Z4        X5        Y5        Z5
           Y4           0.06370
           Z4           0.02741   0.32963
           X5           0.00000   0.00000   1.00000
           Y5           0.00000   0.00000   0.00000   1.00000
           Z5           0.00000   0.00000   0.00000   0.00000   1.00000
           X6          -0.00000  -0.00000   0.00000   0.00000   0.00000
           Y6           0.00025   0.00061   0.00000   0.00000   0.00000
           Z6           0.00062   0.00616   0.00000   0.00000   0.00000
                          X6        Y6        Z6
           X6           0.14405
           Y6           0.00008   0.01703
           Z6           0.00009  -0.00000   0.01704
 ITU=  0
     Eigenvalues ---    0.05117   0.05119   0.06553   0.08037   0.08041
     Eigenvalues ---    0.13768   0.13785   0.26015   0.63324   0.73878
     Eigenvalues ---    0.94413   0.94655
 Angle between quadratic step and forces=  53.06 degrees.
 Linear search not attempted -- first point.
 B after Tr=    -0.001864    0.000186    0.000372
         Rot=    1.000000    0.000000   -0.000065    0.000031 Ang=   0.01 deg.
 Variable       Old X    -DE/DX   Delta X   Delta X   Delta X     New X
                                 (Linear)    (Quad)   (Total)
    X1        0.76453  -0.00032   0.00000   0.00110  -0.00077   0.76376
    Y1        0.00210   0.00033   0.00000  -0.00006   0.00008   0.00217
    Z1        0.00259   0.00058   0.00000  -0.00023   0.00005   0.00264
    X2        1.37616  -0.00006   0.00000   0.00326   0.00145   1.37760
    Y2       -1.57779   0.00003   0.00000   0.00058   0.00068  -1.57711
    Z2        1.14466  -0.00009   0.00000  -0.00062  -0.00043   1.14423
    X3        1.37625  -0.00024   0.00000   0.00155  -0.00011   1.37614
    Y3        1.78158  -0.00032   0.00000  -0.00119  -0.00109   1.78049
    Z3        0.80115  -0.00019   0.00000  -0.00063  -0.00044   0.80071
    X4        1.37334   0.00024   0.00000   0.00660   0.00447   1.37781
    Y4       -0.19562  -0.00007   0.00000  -0.00007   0.00003  -0.19560
    Z4       -1.93612  -0.00038   0.00000   0.00003   0.00022  -1.93590
    X5        6.38865   0.00258   0.00000   0.00352   0.00165   6.39031
    Y5       -0.00042   0.00000   0.00000  -0.00000  -0.00021  -0.00063
    Z5       -0.00106  -0.00001   0.00000  -0.00001  -0.00047  -0.00153
    X6       -2.99977  -0.00220   0.00000  -0.00483  -0.00670  -3.00647
    Y6       -0.00025   0.00003   0.00000   0.00014   0.00051   0.00027
    Z6       -0.00004   0.00009   0.00000   0.00031   0.00107   0.00103
         Item               Value     Threshold  Converged?
 Maximum Force            0.002582     0.000450     NO 
 RMS     Force            0.000832     0.000300     NO 
 Maximum Displacement     0.006697     0.001800     NO 
 RMS     Displacement     0.002028     0.001200     NO 
 Predicted change in Energy=-1.509667D-05
 GradGradGradGradGradGradGradGradGradGradGradGradGradGradGradGradGradGrad

 1\1\GINC-FS\Force\RM062X\6-311G(d,p)\C1H3Br1Cl1(1-)\XINYAN\22-Jan-2019
 \0\\# M062X/6-311G** force nosymm int=ultrafine\\Title\\-1,1\C,0.40457
 ,0.00111,0.00137\H,0.72823,-0.83493,0.60573\H,0.72828,0.94277,0.42395\
 H,0.72674,-0.10352,-1.02455\Cl,3.38073,-0.00022,-0.00056\Br,-1.58741,-
 0.00013,-0.00002\\Version=ES64L-G16RevA.03\HF=-3074.3515674\RMSD=2.886
 e-09\RMSF=8.323e-04\Dipole=-4.4025001,0.0010188,0.0016066\Quadrupole=-
 27.547992,13.7733076,13.7746844,0.0044875,0.0105705,-0.0003231\PG=C01 
 [X(C1H3Br1Cl1)]\\@


 OLD AGE AND TREACHERY WILL ALWAYS PREVAIL OVER YOUTH AND SKILL.
 Job cpu time:       0 days  0 hours  0 minutes 46.4 seconds.
 Elapsed time:       0 days  0 hours  0 minutes 10.0 seconds.
 File lengths (MBytes):  RWF=     10 Int=      0 D2E=      0 Chk=      2 Scr=      1
 Normal termination of Gaussian 16 at Tue Jan 22 16:52:38 2019.
