 Entering Gaussian System, Link 0=g16
 Input=CH3BrCl-21.gjf
 Output=CH3BrCl-21.log
 Initial command:
 /home/xinyan/g16/l1.exe "/scratch/tmp/Gau-13152.inp" -scrdir="/scratch/tmp/"
 Entering Link 1 = /home/xinyan/g16/l1.exe PID=     13153.
  
 Copyright (c) 1988,1990,1992,1993,1995,1998,2003,2009,2016,
            Gaussian, Inc.  All Rights Reserved.
  
 This is part of the Gaussian(R) 16 program.  It is based on
 the Gaussian(R) 09 system (copyright 2009, Gaussian, Inc.),
 the Gaussian(R) 03 system (copyright 2003, Gaussian, Inc.),
 the Gaussian(R) 98 system (copyright 1998, Gaussian, Inc.),
 the Gaussian(R) 94 system (copyright 1995, Gaussian, Inc.),
 the Gaussian 92(TM) system (copyright 1992, Gaussian, Inc.),
 the Gaussian 90(TM) system (copyright 1990, Gaussian, Inc.),
 the Gaussian 88(TM) system (copyright 1988, Gaussian, Inc.),
 the Gaussian 86(TM) system (copyright 1986, Carnegie Mellon
 University), and the Gaussian 82(TM) system (copyright 1983,
 Carnegie Mellon University). Gaussian is a federally registered
 trademark of Gaussian, Inc.
  
 This software contains proprietary and confidential information,
 including trade secrets, belonging to Gaussian, Inc.
  
 This software is provided under written license and may be
 used, copied, transmitted, or stored only in accord with that
 written license.
  
 The following legend is applicable only to US Government
 contracts under FAR:
  
                    RESTRICTED RIGHTS LEGEND
  
 Use, reproduction and disclosure by the US Government is
 subject to restrictions as set forth in subparagraphs (a)
 and (c) of the Commercial Computer Software - Restricted
 Rights clause in FAR 52.227-19.
  
 Gaussian, Inc.
 340 Quinnipiac St., Bldg. 40, Wallingford CT 06492
  
  
 ---------------------------------------------------------------
 Warning -- This program may not be used in any manner that
 competes with the business of Gaussian, Inc. or will provide
 assistance to any competitor of Gaussian, Inc.  The licensee
 of this program is prohibited from giving any competitor of
 Gaussian, Inc. access to this program.  By using this program,
 the user acknowledges that Gaussian, Inc. is engaged in the
 business of creating and licensing software in the field of
 computational chemistry and represents and warrants to the
 licensee that it is not a competitor of Gaussian, Inc. and that
 it will not use this program in any manner prohibited above.
 ---------------------------------------------------------------
  

 Cite this work as:
 Gaussian 16, Revision A.03,
 M. J. Frisch, G. W. Trucks, H. B. Schlegel, G. E. Scuseria, 
 M. A. Robb, J. R. Cheeseman, G. Scalmani, V. Barone, 
 G. A. Petersson, H. Nakatsuji, X. Li, M. Caricato, A. V. Marenich, 
 J. Bloino, B. G. Janesko, R. Gomperts, B. Mennucci, H. P. Hratchian, 
 J. V. Ortiz, A. F. Izmaylov, J. L. Sonnenberg, D. Williams-Young, 
 F. Ding, F. Lipparini, F. Egidi, J. Goings, B. Peng, A. Petrone, 
 T. Henderson, D. Ranasinghe, V. G. Zakrzewski, J. Gao, N. Rega, 
 G. Zheng, W. Liang, M. Hada, M. Ehara, K. Toyota, R. Fukuda, 
 J. Hasegawa, M. Ishida, T. Nakajima, Y. Honda, O. Kitao, H. Nakai, 
 T. Vreven, K. Throssell, J. A. Montgomery, Jr., J. E. Peralta, 
 F. Ogliaro, M. J. Bearpark, J. J. Heyd, E. N. Brothers, K. N. Kudin, 
 V. N. Staroverov, T. A. Keith, R. Kobayashi, J. Normand, 
 K. Raghavachari, A. P. Rendell, J. C. Burant, S. S. Iyengar, 
 J. Tomasi, M. Cossi, J. M. Millam, M. Klene, C. Adamo, R. Cammi, 
 J. W. Ochterski, R. L. Martin, K. Morokuma, O. Farkas, 
 J. B. Foresman, and D. J. Fox, Gaussian, Inc., Wallingford CT, 2016.
 
 ******************************************
 Gaussian 16:  ES64L-G16RevA.03 25-Dec-2016
                22-Jan-2019 
 ******************************************
 %nproc=5
 Will use up to    5 processors via shared memory.
 -------------------------------------------
 # M062X/6-311G** force nosymm int=ultrafine
 -------------------------------------------
 1/10=7,30=1,38=1/1,3;
 2/12=2,15=1,17=6,18=5,40=1/2;
 3/5=4,6=6,7=101,11=2,25=1,30=1,71=1,74=-55,75=-5/1,2,3;
 4//1;
 5/5=2,38=5/2;
 6/7=2,8=2,9=2,10=2,28=1/1;
 7/29=1,30=1/1,2,3,16;
 1/10=7,30=1/3;
 99//99;
 -----
 Title
 -----
 Symbolic Z-matrix:
 Charge = -1 Multiplicity = 1
 C                     0.41802   0.00076   0.00137 
 H                     0.74002  -0.83659   0.60361 
 H                     0.73916   0.94114   0.42569 
 H                     0.74048  -0.10179  -1.02479 
 Cl                    3.33956  -0.00017  -0.00045 
 Br                   -1.57167  -0.00007  -0.00007 
 

 GradGradGradGradGradGradGradGradGradGradGradGradGradGradGradGradGradGrad
 Berny optimization.
 Initialization pass.
 Trust Radius=3.00D-01 FncErr=1.00D-07 GrdErr=1.00D-07 EigMax=2.50D+02 EigMin=1.00D-04
 Number of steps in this run=      2 maximum allowed number of steps=      2.
 GradGradGradGradGradGradGradGradGradGradGradGradGradGradGradGradGradGrad

                          Input orientation:                          
 ---------------------------------------------------------------------
 Center     Atomic      Atomic             Coordinates (Angstroms)
 Number     Number       Type             X           Y           Z
 ---------------------------------------------------------------------
      1          6           0        0.418020    0.000760    0.001370
      2          1           0        0.740020   -0.836590    0.603610
      3          1           0        0.739160    0.941140    0.425690
      4          1           0        0.740480   -0.101790   -1.024790
      5         17           0        3.339560   -0.000170   -0.000450
      6         35           0       -1.571670   -0.000070   -0.000070
 ---------------------------------------------------------------------
                    Distance matrix (angstroms):
                    1          2          3          4          5
     1  C    0.000000
     2  H    1.080524   0.000000
     3  H    1.080506   1.786611   0.000000
     4  H    1.080510   1.786510   1.786504   0.000000
     5  Cl   2.921541   2.796801   2.798167   2.795499   0.000000
     6  Br   1.989691   2.531424   2.531222   2.531094   4.911230
                    6
     6  Br   0.000000
 Symmetry turned off by external request.
 This structure is nearly, but not quite of a higher symmetry.
 Consider Symm=Loose if the higher symmetry is desired.
 Stoichiometry    CH3BrCl(1-)
 Framework group  C1[X(CH3BrCl)]
 Deg. of freedom    12
 Full point group                 C1      NOp   1
 Rotational constants (GHZ):         157.1084875           0.8561452           0.8561449
 Standard basis: 6-311G(d,p) (5D, 7F)
   106 basis functions,   195 primitive gaussians,   111 cartesian basis functions
    31 alpha electrons       31 beta electrons
       nuclear repulsion energy       179.7416739895 Hartrees.
 NAtoms=    6 NActive=    6 NUniq=    6 SFac= 1.00D+00 NAtFMM=   60 NAOKFM=F Big=F
 Integral buffers will be    131072 words long.
 Raffenetti 2 integral format.
 Two-electron integral symmetry is turned off.
 One-electron integrals computed using PRISM.
 NBasis=   106 RedAO= T EigKep=  9.93D-03  NBF=   106
 NBsUse=   106 1.00D-06 EigRej= -1.00D+00 NBFU=   106
 ExpMin= 1.03D-01 ExpMax= 4.40D+05 ExpMxC= 1.51D+04 IAcc=3 IRadAn=         5 AccDes= 0.00D+00
 Harris functional with IExCor= 1009 and IRadAn=       5 diagonalized for initial guess.
 HarFok:  IExCor= 1009 AccDes= 0.00D+00 IRadAn=         5 IDoV= 1 UseB2=F ITyADJ=14
 ICtDFT=  3500011 ScaDFX=  1.000000  1.000000  1.000000  1.000000
 FoFCou: FMM=F IPFlag=           0 FMFlag=      100000 FMFlg1=           0
         NFxFlg=           0 DoJE=T BraDBF=F KetDBF=T FulRan=T
         wScrn=  0.000000 ICntrl=       500 IOpCl=  0 I1Cent=   200000004 NGrid=           0
         NMat0=    1 NMatS0=      1 NMatT0=    0 NMatD0=    1 NMtDS0=    0 NMtDT0=    0
 Symmetry not used in FoFCou.
 Keep R1 ints in memory in canonical form, NReq=20756204.
 Requested convergence on RMS density matrix=1.00D-08 within 128 cycles.
 Requested convergence on MAX density matrix=1.00D-06.
 Requested convergence on             energy=1.00D-06.
 No special actions if energy rises.
 Integral accuracy reduced to 1.0D-05 until final iterations.
 Initial convergence to 1.0D-05 achieved.  Increase integral accuracy.
 SCF Done:  E(RM062X) =  -3074.35118212     A.U. after   13 cycles
            NFock= 13  Conv=0.46D-08     -V/T= 2.0013

 **********************************************************************

            Population analysis using the SCF density.

 **********************************************************************

 Alpha  occ. eigenvalues -- -485.18802-102.36275 -63.18029 -57.00745 -57.00532
 Alpha  occ. eigenvalues --  -57.00532 -10.44197  -9.50451  -8.86726  -7.22566
 Alpha  occ. eigenvalues --   -7.22544  -7.22544  -6.69408  -6.68559  -6.68559
 Alpha  occ. eigenvalues --   -2.72562  -2.72270  -2.72270  -2.71517  -2.71517
 Alpha  occ. eigenvalues --   -0.75346  -0.61782  -0.58809  -0.36198  -0.36194
 Alpha  occ. eigenvalues --   -0.29767  -0.20711  -0.20710  -0.10544  -0.10543
 Alpha  occ. eigenvalues --   -0.10459
 Alpha virt. eigenvalues --    0.17539   0.23919   0.28777   0.28784   0.43982
 Alpha virt. eigenvalues --    0.45805   0.45808   0.46965   0.46967   0.55623
 Alpha virt. eigenvalues --    0.56595   0.56759   0.56768   0.68232   0.76275
 Alpha virt. eigenvalues --    0.76279   0.77828   0.81771   0.81772   0.85493
 Alpha virt. eigenvalues --    0.85499   0.92027   1.02066   1.09989   1.23288
 Alpha virt. eigenvalues --    1.23289   1.23718   1.23721   1.29535   1.29543
 Alpha virt. eigenvalues --    1.32551   1.62929   1.65897   1.65901   1.84179
 Alpha virt. eigenvalues --    1.85735   1.85737   2.08399   2.09539   2.09543
 Alpha virt. eigenvalues --    2.27504   2.30879   2.30884   2.43703   2.43707
 Alpha virt. eigenvalues --    2.49485   2.56114   2.59997   2.60001   2.70073
 Alpha virt. eigenvalues --    2.70080   3.09630   3.18449   3.90053   3.90059
 Alpha virt. eigenvalues --    4.42851   4.42851   4.52915   4.52919   4.81131
 Alpha virt. eigenvalues --    6.70835   7.70096   7.70097   7.80379   9.88782
 Alpha virt. eigenvalues --   24.09436  25.79001  25.79008  25.96178  48.27476
 Alpha virt. eigenvalues --  215.92331 290.84817 290.84817 290.980531020.76972
          Condensed to atoms (all electrons):
               1          2          3          4          5          6
     1  C    5.035016   0.409294   0.409281   0.409336  -0.013822   0.149703
     2  H    0.409294   0.489930  -0.018009  -0.017991  -0.006872  -0.050415
     3  H    0.409281  -0.018009   0.490061  -0.018001  -0.006857  -0.050432
     4  H    0.409336  -0.017991  -0.018001   0.489837  -0.006901  -0.050463
     5  Cl  -0.013822  -0.006872  -0.006857  -0.006901  17.951884   0.008368
     6  Br   0.149703  -0.050415  -0.050432  -0.050463   0.008368  35.250839
 Mulliken charges:
               1
     1  C   -0.398807
     2  H    0.194063
     3  H    0.193958
     4  H    0.194184
     5  Cl  -0.925799
     6  Br  -0.257600
 Sum of Mulliken charges =  -1.00000
 Mulliken charges with hydrogens summed into heavy atoms:
               1
     1  C    0.183399
     5  Cl  -0.925799
     6  Br  -0.257600
 Electronic spatial extent (au):  <R**2>=           1143.1035
 Charge=             -1.0000 electrons
 Dipole moment (field-independent basis, Debye):
    X=            -11.4472    Y=              0.0017    Z=              0.0034  Tot=             11.4472
 Quadrupole moment (field-independent basis, Debye-Ang):
   XX=            -97.3013   YY=            -43.0155   ZZ=            -43.0154
   XY=              0.0028   XZ=              0.0085   YZ=             -0.0002
 Traceless Quadrupole moment (field-independent basis, Debye-Ang):
   XX=            -36.1906   YY=             18.0952   ZZ=             18.0953
   XY=              0.0028   XZ=              0.0085   YZ=             -0.0002
 Octapole moment (field-independent basis, Debye-Ang**2):
  XXX=           -254.4037  YYY=              0.2785  ZZZ=             -0.9131  XYY=            -26.7589
  XXY=              0.0029  XXZ=              0.0146  XZZ=            -26.7580  YZZ=             -0.2822
  YYZ=              0.9113  XYZ=             -0.0007
 Hexadecapole moment (field-independent basis, Debye-Ang**3):
 XXXX=          -2024.3051 YYYY=            -62.9911 ZZZZ=            -62.9958 XXXY=              0.0440
 XXXZ=              0.1383 YYYX=              0.2226 YYYZ=              0.0025 ZZZX=             -0.6148
 ZZZY=             -0.0024 XXYY=           -256.7453 XXZZ=           -256.7429 YYZZ=            -20.9950
 XXYZ=             -0.0021 YYXZ=              0.6913 ZZXY=             -0.2023
 N-N= 1.797416739895D+02 E-N=-7.711998275517D+03  KE= 3.070221457933D+03
 Calling FoFJK, ICntrl=      2127 FMM=F ISym2X=0 I1Cent= 0 IOpClX= 0 NMat=1 NMatS=1 NMatT=0.
 -------------------------------------------------------------------
 Center     Atomic                   Forces (Hartrees/Bohr)
 Number     Number              X              Y              Z
 -------------------------------------------------------------------
      1        6          -0.000446512   -0.000013677   -0.000035369
      2        1          -0.000063865   -0.000114870    0.000092694
      3        1          -0.000057153    0.000157516    0.000065593
      4        1          -0.000073033   -0.000017328   -0.000133743
      5       17           0.004709938   -0.000005077   -0.000008514
      6       35          -0.004069375   -0.000006565    0.000019338
 -------------------------------------------------------------------
 Cartesian Forces:  Max     0.004709938 RMS     0.001472459

 GradGradGradGradGradGradGradGradGradGradGradGradGradGradGradGradGradGrad
 Berny optimization.
 Search for a local minimum.
 Step number   1 out of a maximum of    2
 All quantities printed in internal units (Hartrees-Bohrs-Radians)
 Second derivative matrix not updated -- first step.
 The second derivative matrix:
                          X1        Y1        Z1        X2        Y2
           X1           0.43967
           Y1          -0.00013   0.64683
           Z1          -0.00008  -0.00001   0.64675
           X2          -0.09829   0.07694  -0.05534   0.08227
           Y2           0.06615  -0.24583   0.11665  -0.07021   0.23981
           Z2          -0.04758   0.11665  -0.16754   0.05050  -0.12861
           X3          -0.09815  -0.08621  -0.03891   0.00800   0.01070
           Y3          -0.07410  -0.28824  -0.09231  -0.00837  -0.01191
           Z3          -0.03345  -0.09231  -0.12530   0.01250   0.01829
           X4          -0.09836   0.00945   0.09441   0.00802  -0.00664
           Y4           0.00812  -0.08607  -0.02433  -0.01455   0.01375
           Z4           0.08119  -0.02434  -0.32723   0.00398  -0.00346
           X5           0.00000   0.00000   0.00000   0.00000   0.00000
           Y5           0.00000   0.00000   0.00000   0.00000   0.00000
           Z5           0.00000   0.00000   0.00000   0.00000   0.00000
           X6          -0.14487  -0.00005  -0.00009   0.00000   0.00000
           Y6          -0.00005  -0.02669   0.00000   0.01619   0.00418
           Z6          -0.00009   0.00000  -0.02668  -0.01164  -0.00287
                          Z2        X3        Y3        Z3        X4
           Z2           0.15349
           X3           0.01060   0.08213
           Y3          -0.01208   0.07865   0.28655
           Z3           0.01875   0.03550   0.10178   0.10691
           X4          -0.01352   0.00801   0.00383  -0.01455   0.08235
           Y4           0.02689   0.01504   0.00840  -0.03001  -0.00862
           Z4          -0.00694   0.00101   0.00036  -0.00157  -0.08618
           X5           0.00000   0.00000   0.00000   0.00000   0.00000
           Y5           0.00000   0.00000   0.00000   0.00000   0.00000
           Z5           0.00000   0.00000   0.00000   0.00000   0.00000
           X6          -0.00000   0.00001  -0.00000  -0.00000  -0.00002
           Y6          -0.00285  -0.01818   0.00519   0.00225   0.00198
           Z6           0.00224  -0.00820   0.00226   0.00120   0.01984
                          Y4        Z4        X5        Y5        Z5
           Y4           0.06367
           Z4           0.02684   0.32957
           X5           0.00000   0.00000   1.00000
           Y5           0.00000   0.00000   0.00000   1.00000
           Z5           0.00000   0.00000   0.00000   0.00000   1.00000
           X6          -0.00000  -0.00000   0.00000   0.00000   0.00000
           Y6           0.00025   0.00060   0.00000   0.00000   0.00000
           Z6           0.00061   0.00617   0.00000   0.00000   0.00000
                          X6        Y6        Z6
           X6           0.14487
           Y6           0.00005   0.01707
           Z6           0.00009  -0.00000   0.01707
 ITU=  0
     Eigenvalues ---    0.05155   0.05155   0.06570   0.08137   0.08138
     Eigenvalues ---    0.13818   0.13819   0.26105   0.63372   0.73886
     Eigenvalues ---    0.94770   0.94778
 Angle between quadratic step and forces=  50.01 degrees.
 Linear search not attempted -- first point.
 B after Tr=    -0.003230   -0.000029    0.000014
         Rot=    1.000000    0.000000    0.000000   -0.000001 Ang=   0.00 deg.
 Variable       Old X    -DE/DX   Delta X   Delta X   Delta X     New X
                                 (Linear)    (Quad)   (Total)
    X1        0.78994  -0.00045   0.00000   0.00243  -0.00080   0.78914
    Y1        0.00144  -0.00001   0.00000   0.00004   0.00001   0.00145
    Z1        0.00259  -0.00004   0.00000  -0.00006  -0.00005   0.00254
    X2        1.39844  -0.00006   0.00000   0.00642   0.00320   1.40163
    Y2       -1.58093  -0.00011   0.00000   0.00048   0.00046  -1.58047
    Z2        1.14066   0.00009   0.00000  -0.00035  -0.00033   1.14032
    X3        1.39681  -0.00006   0.00000   0.00646   0.00323   1.40004
    Y3        1.77850   0.00016   0.00000  -0.00041  -0.00043   1.77807
    Z3        0.80444   0.00007   0.00000  -0.00023  -0.00021   0.80423
    X4        1.39930  -0.00007   0.00000   0.00638   0.00315   1.40246
    Y4       -0.19236  -0.00002   0.00000   0.00009   0.00006  -0.19229
    Z4       -1.93657  -0.00013   0.00000   0.00050   0.00052  -1.93606
    X5        6.31085   0.00471   0.00000   0.00642   0.00319   6.31404
    Y5       -0.00032  -0.00001   0.00000  -0.00003  -0.00004  -0.00036
    Z5       -0.00085  -0.00001   0.00000   0.00003   0.00005  -0.00080
    X6       -2.97003  -0.00407   0.00000  -0.00874  -0.01197  -2.98199
    Y6       -0.00013  -0.00001   0.00000  -0.00003  -0.00006  -0.00019
    Z6       -0.00013   0.00002   0.00000   0.00002   0.00003  -0.00010
         Item               Value     Threshold  Converged?
 Maximum Force            0.004710     0.000450     NO 
 RMS     Force            0.001472     0.000300     NO 
 Maximum Displacement     0.011966     0.001800     NO 
 RMS     Displacement     0.003209     0.001200     NO 
 Predicted change in Energy=-4.712294D-05
 GradGradGradGradGradGradGradGradGradGradGradGradGradGradGradGradGradGrad

 1\1\GINC-FS\Force\RM062X\6-311G(d,p)\C1H3Br1Cl1(1-)\XINYAN\22-Jan-2019
 \0\\# M062X/6-311G** force nosymm int=ultrafine\\Title\\-1,1\C,0.41802
 ,0.00076,0.00137\H,0.74002,-0.83659,0.60361\H,0.73916,0.94114,0.42569\
 H,0.74048,-0.10179,-1.02479\Cl,3.33956,-0.00017,-0.00045\Br,-1.57167,-
 0.00007,-0.00007\\Version=ES64L-G16RevA.03\HF=-3074.3511821\RMSD=4.568
 e-09\RMSF=1.472e-03\Dipole=-4.3025765,0.0007304,0.0014046\Quadrupole=-
 26.9067997,13.4533573,13.4534424,0.0020901,0.006318,-0.0001852\PG=C01 
 [X(C1H3Br1Cl1)]\\@


 IT IS A CAPITAL MISTAKE TO THEORIZE BEFORE ONE HAS
 DATA.  INSENSIBLY ONE BEGINS TO TWIST FACTS TO SUIT
 THEORIES RATHER THAN THEORIES TO SUIT FACTS.

                                         -- SHERLOCK HOLMES
 Job cpu time:       0 days  0 hours  0 minutes 45.2 seconds.
 Elapsed time:       0 days  0 hours  0 minutes  9.7 seconds.
 File lengths (MBytes):  RWF=     10 Int=      0 D2E=      0 Chk=      2 Scr=      1
 Normal termination of Gaussian 16 at Tue Jan 22 16:52:10 2019.
