 Entering Gaussian System, Link 0=g16
 Input=CH3BrCl-55.gjf
 Output=CH3BrCl-55.log
 Initial command:
 /home/xinyan/g16/l1.exe "/scratch/tmp/Gau-15557.inp" -scrdir="/scratch/tmp/"
 Entering Link 1 = /home/xinyan/g16/l1.exe PID=     15558.
  
 Copyright (c) 1988,1990,1992,1993,1995,1998,2003,2009,2016,
            Gaussian, Inc.  All Rights Reserved.
  
 This is part of the Gaussian(R) 16 program.  It is based on
 the Gaussian(R) 09 system (copyright 2009, Gaussian, Inc.),
 the Gaussian(R) 03 system (copyright 2003, Gaussian, Inc.),
 the Gaussian(R) 98 system (copyright 1998, Gaussian, Inc.),
 the Gaussian(R) 94 system (copyright 1995, Gaussian, Inc.),
 the Gaussian 92(TM) system (copyright 1992, Gaussian, Inc.),
 the Gaussian 90(TM) system (copyright 1990, Gaussian, Inc.),
 the Gaussian 88(TM) system (copyright 1988, Gaussian, Inc.),
 the Gaussian 86(TM) system (copyright 1986, Carnegie Mellon
 University), and the Gaussian 82(TM) system (copyright 1983,
 Carnegie Mellon University). Gaussian is a federally registered
 trademark of Gaussian, Inc.
  
 This software contains proprietary and confidential information,
 including trade secrets, belonging to Gaussian, Inc.
  
 This software is provided under written license and may be
 used, copied, transmitted, or stored only in accord with that
 written license.
  
 The following legend is applicable only to US Government
 contracts under FAR:
  
                    RESTRICTED RIGHTS LEGEND
  
 Use, reproduction and disclosure by the US Government is
 subject to restrictions as set forth in subparagraphs (a)
 and (c) of the Commercial Computer Software - Restricted
 Rights clause in FAR 52.227-19.
  
 Gaussian, Inc.
 340 Quinnipiac St., Bldg. 40, Wallingford CT 06492
  
  
 ---------------------------------------------------------------
 Warning -- This program may not be used in any manner that
 competes with the business of Gaussian, Inc. or will provide
 assistance to any competitor of Gaussian, Inc.  The licensee
 of this program is prohibited from giving any competitor of
 Gaussian, Inc. access to this program.  By using this program,
 the user acknowledges that Gaussian, Inc. is engaged in the
 business of creating and licensing software in the field of
 computational chemistry and represents and warrants to the
 licensee that it is not a competitor of Gaussian, Inc. and that
 it will not use this program in any manner prohibited above.
 ---------------------------------------------------------------
  

 Cite this work as:
 Gaussian 16, Revision A.03,
 M. J. Frisch, G. W. Trucks, H. B. Schlegel, G. E. Scuseria, 
 M. A. Robb, J. R. Cheeseman, G. Scalmani, V. Barone, 
 G. A. Petersson, H. Nakatsuji, X. Li, M. Caricato, A. V. Marenich, 
 J. Bloino, B. G. Janesko, R. Gomperts, B. Mennucci, H. P. Hratchian, 
 J. V. Ortiz, A. F. Izmaylov, J. L. Sonnenberg, D. Williams-Young, 
 F. Ding, F. Lipparini, F. Egidi, J. Goings, B. Peng, A. Petrone, 
 T. Henderson, D. Ranasinghe, V. G. Zakrzewski, J. Gao, N. Rega, 
 G. Zheng, W. Liang, M. Hada, M. Ehara, K. Toyota, R. Fukuda, 
 J. Hasegawa, M. Ishida, T. Nakajima, Y. Honda, O. Kitao, H. Nakai, 
 T. Vreven, K. Throssell, J. A. Montgomery, Jr., J. E. Peralta, 
 F. Ogliaro, M. J. Bearpark, J. J. Heyd, E. N. Brothers, K. N. Kudin, 
 V. N. Staroverov, T. A. Keith, R. Kobayashi, J. Normand, 
 K. Raghavachari, A. P. Rendell, J. C. Burant, S. S. Iyengar, 
 J. Tomasi, M. Cossi, J. M. Millam, M. Klene, C. Adamo, R. Cammi, 
 J. W. Ochterski, R. L. Martin, K. Morokuma, O. Farkas, 
 J. B. Foresman, and D. J. Fox, Gaussian, Inc., Wallingford CT, 2016.
 
 ******************************************
 Gaussian 16:  ES64L-G16RevA.03 25-Dec-2016
                22-Jan-2019 
 ******************************************
 %nproc=5
 Will use up to    5 processors via shared memory.
 -------------------------------------------
 # M062X/6-311G** force nosymm int=ultrafine
 -------------------------------------------
 1/10=7,30=1,38=1/1,3;
 2/12=2,15=1,17=6,18=5,40=1/2;
 3/5=4,6=6,7=101,11=2,25=1,30=1,71=1,74=-55,75=-5/1,2,3;
 4//1;
 5/5=2,38=5/2;
 6/7=2,8=2,9=2,10=2,28=1/1;
 7/29=1,30=1/1,2,3,16;
 1/10=7,30=1/3;
 99//99;
 -----
 Title
 -----
 Symbolic Z-matrix:
 Charge = -1 Multiplicity = 1
 C                     1.40082   0.00117   0.00217 
 H                     1.0646   -0.83383   0.60219 
 H                     1.06575   0.93829   0.42631 
 H                     1.06268  -0.10014  -1.02078 
 Cl                    3.2308   -0.00015  -0.00013 
 Br                   -1.68535  -0.00017  -0.00037 
 

 GradGradGradGradGradGradGradGradGradGradGradGradGradGradGradGradGradGrad
 Berny optimization.
 Initialization pass.
 Trust Radius=3.00D-01 FncErr=1.00D-07 GrdErr=1.00D-07 EigMax=2.50D+02 EigMin=1.00D-04
 Number of steps in this run=      2 maximum allowed number of steps=      2.
 GradGradGradGradGradGradGradGradGradGradGradGradGradGradGradGradGradGrad

                          Input orientation:                          
 ---------------------------------------------------------------------
 Center     Atomic      Atomic             Coordinates (Angstroms)
 Number     Number       Type             X           Y           Z
 ---------------------------------------------------------------------
      1          6           0        1.400820    0.001170    0.002170
      2          1           0        1.064600   -0.833830    0.602190
      3          1           0        1.065750    0.938290    0.426310
      4          1           0        1.062680   -0.100140   -1.020780
      5         17           0        3.230800   -0.000150   -0.000130
      6         35           0       -1.685350   -0.000170   -0.000370
 ---------------------------------------------------------------------
                    Distance matrix (angstroms):
                    1          2          3          4          5
     1  C    0.000000
     2  H    1.081801   0.000000
     3  H    1.081832   1.780827   0.000000
     4  H    1.082141   1.781105   1.781128   0.000000
     5  Cl   1.829982   2.397965   2.397908   2.398430   0.000000
     6  Br   3.086171   2.936033   2.937910   2.933070   4.916150
                    6
     6  Br   0.000000
 Symmetry turned off by external request.
 Stoichiometry    CH3BrCl(1-)
 Framework group  C1[X(CH3BrCl)]
 Deg. of freedom    12
 Full point group                 C1      NOp   1
 Rotational constants (GHZ):         158.0816218           0.8181122           0.8181112
 Standard basis: 6-311G(d,p) (5D, 7F)
   106 basis functions,   195 primitive gaussians,   111 cartesian basis functions
    31 alpha electrons       31 beta electrons
       nuclear repulsion energy       169.4259484704 Hartrees.
 NAtoms=    6 NActive=    6 NUniq=    6 SFac= 1.00D+00 NAtFMM=   60 NAOKFM=F Big=F
 Integral buffers will be    131072 words long.
 Raffenetti 2 integral format.
 Two-electron integral symmetry is turned off.
 One-electron integrals computed using PRISM.
 NBasis=   106 RedAO= T EigKep=  1.10D-02  NBF=   106
 NBsUse=   106 1.00D-06 EigRej= -1.00D+00 NBFU=   106
 ExpMin= 1.03D-01 ExpMax= 4.40D+05 ExpMxC= 1.51D+04 IAcc=3 IRadAn=         5 AccDes= 0.00D+00
 Harris functional with IExCor= 1009 and IRadAn=       5 diagonalized for initial guess.
 HarFok:  IExCor= 1009 AccDes= 0.00D+00 IRadAn=         5 IDoV= 1 UseB2=F ITyADJ=14
 ICtDFT=  3500011 ScaDFX=  1.000000  1.000000  1.000000  1.000000
 FoFCou: FMM=F IPFlag=           0 FMFlag=      100000 FMFlg1=           0
         NFxFlg=           0 DoJE=T BraDBF=F KetDBF=T FulRan=T
         wScrn=  0.000000 ICntrl=       500 IOpCl=  0 I1Cent=   200000004 NGrid=           0
         NMat0=    1 NMatS0=      1 NMatT0=    0 NMatD0=    1 NMtDS0=    0 NMtDT0=    0
 Symmetry not used in FoFCou.
 Keep R1 ints in memory in canonical form, NReq=20756204.
 Requested convergence on RMS density matrix=1.00D-08 within 128 cycles.
 Requested convergence on MAX density matrix=1.00D-06.
 Requested convergence on             energy=1.00D-06.
 No special actions if energy rises.
 Integral accuracy reduced to 1.0D-05 until final iterations.
 Initial convergence to 1.0D-05 achieved.  Increase integral accuracy.
 SCF Done:  E(RM062X) =  -3074.35805861     A.U. after   13 cycles
            NFock= 13  Conv=0.45D-08     -V/T= 2.0013

 **********************************************************************

            Population analysis using the SCF density.

 **********************************************************************

 Alpha  occ. eigenvalues -- -485.03887-102.53020 -63.03103 -56.85689 -56.85685
 Alpha  occ. eigenvalues --  -56.85685 -10.44537  -9.67234  -8.71693  -7.39687
 Alpha  occ. eigenvalues --   -7.39118  -7.39118  -6.53846  -6.53816  -6.53816
 Alpha  occ. eigenvalues --   -2.57034  -2.57024  -2.57024  -2.56999  -2.56999
 Alpha  occ. eigenvalues --   -0.80945  -0.62534  -0.55203  -0.37055  -0.37048
 Alpha  occ. eigenvalues --   -0.32981  -0.23350  -0.23349  -0.09121  -0.09102
 Alpha  occ. eigenvalues --   -0.09101
 Alpha virt. eigenvalues --    0.20319   0.23568   0.28412   0.28421   0.43018
 Alpha virt. eigenvalues --    0.46272   0.46275   0.46969   0.46972   0.53923
 Alpha virt. eigenvalues --    0.56609   0.56618   0.59445   0.71645   0.74515
 Alpha virt. eigenvalues --    0.76462   0.76466   0.86441   0.95129   0.95131
 Alpha virt. eigenvalues --    0.96014   0.96024   1.00049   1.01561   1.01562
 Alpha virt. eigenvalues --    1.08138   1.08141   1.13562   1.25145   1.32439
 Alpha virt. eigenvalues --    1.32441   1.63071   1.65890   1.65903   1.86850
 Alpha virt. eigenvalues --    1.86853   1.88088   2.08189   2.17670   2.17679
 Alpha virt. eigenvalues --    2.26062   2.26411   2.26423   2.39052   2.39056
 Alpha virt. eigenvalues --    2.52740   2.53965   2.59266   2.59279   2.69338
 Alpha virt. eigenvalues --    2.69366   3.07425   3.31520   3.90871   3.90903
 Alpha virt. eigenvalues --    4.56722   4.56724   4.57478   4.57483   4.67868
 Alpha virt. eigenvalues --    6.78642   7.82065   7.82068   7.86914   9.85753
 Alpha virt. eigenvalues --   24.07900  25.69336  25.69339  26.22950  48.37413
 Alpha virt. eigenvalues --  215.90969 290.98603 290.98607 291.032851020.85744
          Condensed to atoms (all electrons):
               1          2          3          4          5          6
     1  C    5.065140   0.403987   0.403960   0.403984   0.142080  -0.026004
     2  H    0.403987   0.504040  -0.020722  -0.020685  -0.057948   0.002760
     3  H    0.403960  -0.020722   0.504217  -0.020697  -0.057947   0.002768
     4  H    0.403984  -0.020685  -0.020697   0.503821  -0.057931   0.002748
     5  Cl   0.142080  -0.057948  -0.057947  -0.057931  17.273280   0.007375
     6  Br  -0.026004   0.002760   0.002768   0.002748   0.007375  35.934049
 Mulliken charges:
               1
     1  C   -0.393147
     2  H    0.188568
     3  H    0.188421
     4  H    0.188760
     5  Cl  -0.248907
     6  Br  -0.923695
 Sum of Mulliken charges =  -1.00000
 Mulliken charges with hydrogens summed into heavy atoms:
               1
     1  C    0.172603
     5  Cl  -0.248907
     6  Br  -0.923695
 Electronic spatial extent (au):  <R**2>=           1172.1751
 Charge=             -1.0000 electrons
 Dipole moment (field-independent basis, Debye):
    X=              3.6957    Y=              0.0025    Z=              0.0046  Tot=              3.6957
 Quadrupole moment (field-independent basis, Debye-Ang):
   XX=            -72.2995   YY=            -43.1925   ZZ=            -43.1905
   XY=              0.0009   XZ=              0.0010   YZ=             -0.0003
 Traceless Quadrupole moment (field-independent basis, Debye-Ang):
   XX=            -19.4053   YY=              9.7017   ZZ=              9.7036
   XY=              0.0009   XZ=              0.0010   YZ=             -0.0003
 Octapole moment (field-independent basis, Debye-Ang**2):
  XXX=            -78.7832  YYY=              0.2589  ZZZ=             -0.8790  XYY=            -16.5466
  XXY=             -0.0009  XXZ=             -0.0030  XZZ=            -16.5508  YZZ=             -0.2668
  YYZ=              0.8615  XYZ=              0.0008
 Hexadecapole moment (field-independent basis, Debye-Ang**3):
 XXXX=          -1555.3085 YYYY=            -63.7430 ZZZZ=            -63.7507 XXXY=             -0.0631
 XXXZ=             -0.1440 YYYX=              0.2674 YYYZ=              0.0032 ZZZX=             -1.0699
 ZZZY=             -0.0043 XXYY=           -244.7526 XXZZ=           -244.7558 YYZZ=            -21.2442
 XXYZ=             -0.0007 YYXZ=              0.9547 ZZXY=             -0.3119
 N-N= 1.694259484704D+02 E-N=-7.693715596919D+03  KE= 3.070227221904D+03
 Calling FoFJK, ICntrl=      2127 FMM=F ISym2X=0 I1Cent= 0 IOpClX= 0 NMat=1 NMatS=1 NMatT=0.
 -------------------------------------------------------------------
 Center     Atomic                   Forces (Hartrees/Bohr)
 Number     Number              X              Y              Z
 -------------------------------------------------------------------
      1        6           0.001057334   -0.000013050   -0.000202768
      2        1           0.000035284    0.000013359    0.000003673
      3        1           0.000039835    0.000006002   -0.000016925
      4        1           0.000120843    0.000034599    0.000266999
      5       17           0.003500402   -0.000004328   -0.000008976
      6       35          -0.004753698   -0.000036582   -0.000042004
 -------------------------------------------------------------------
 Cartesian Forces:  Max     0.004753698 RMS     0.001416242

 GradGradGradGradGradGradGradGradGradGradGradGradGradGradGradGradGradGrad
 Berny optimization.
 Search for a local minimum.
 Step number   1 out of a maximum of    2
 All quantities printed in internal units (Hartrees-Bohrs-Radians)
 Second derivative matrix not updated -- first step.
 The second derivative matrix:
                          X1        Y1        Z1        X2        Y2
           X1           0.54431
           Y1           0.00010   0.64229
           Z1           0.00010  -0.00004   0.64204
           X2          -0.10179  -0.07832   0.05625   0.08524
           Y2          -0.06798  -0.24281   0.11607   0.07238   0.23707
           Z2           0.04883   0.11610  -0.16474  -0.05199  -0.12742
           X3          -0.10158   0.08761   0.03963   0.00824  -0.01100
           Y3           0.07602  -0.28473  -0.09208   0.00866  -0.01211
           Z3           0.03440  -0.09210  -0.12299  -0.01262   0.01808
           X4          -0.10204  -0.00954  -0.09624   0.00831   0.00660
           Y4          -0.00828  -0.08363  -0.02395   0.01480   0.01311
           Z4          -0.08358  -0.02396  -0.32318  -0.00421  -0.00348
           X5          -0.23890   0.00015   0.00026   0.00000  -0.00000
           Y5           0.00015  -0.03112   0.00000  -0.01752   0.00475
           Z5           0.00025   0.00000  -0.03113   0.01258  -0.00324
           X6           0.00000   0.00000   0.00000   0.00000   0.00000
           Y6           0.00000   0.00000   0.00000   0.00000   0.00000
           Z6           0.00000   0.00000   0.00000   0.00000   0.00000
                          Z2        X3        Y3        Z3        X4
           Z2           0.15132
           X3          -0.01069   0.08503
           Y3          -0.01201  -0.08093   0.28306
           Z3           0.01808  -0.03662   0.10107   0.10550
           X4           0.01385   0.00828  -0.00375   0.01484   0.08548
           Y4           0.02653  -0.01534   0.00790  -0.02958   0.00882
           Z4          -0.00720  -0.00122   0.00046  -0.00197   0.08900
           X5           0.00000   0.00003   0.00001   0.00000  -0.00003
           Y5          -0.00321   0.01966   0.00588   0.00254  -0.00213
           Z5           0.00253   0.00889   0.00256   0.00138  -0.02144
           X6           0.00000   0.00000   0.00000   0.00000   0.00000
           Y6           0.00000   0.00000   0.00000   0.00000   0.00000
           Z6           0.00000   0.00000   0.00000   0.00000   0.00000
                          Y4        Z4        X5        Y5        Z5
           Y4           0.06233
           Z4           0.02631   0.32534
           X5           0.00000   0.00001   0.23890
           Y5           0.00030   0.00067  -0.00016   0.02020
           Z5           0.00069   0.00702  -0.00027   0.00000   0.02020
           X6           0.00000   0.00000   0.00000   0.00000   0.00000
           Y6           0.00000   0.00000   0.00000   0.00000   0.00000
           Z6           0.00000   0.00000   0.00000   0.00000   0.00000
                          X6        Y6        Z6
           X6           1.00000
           Y6           0.00000   1.00000
           Z6           0.00000   0.00000   1.00000
 ITU=  0
     Eigenvalues ---    0.02742   0.02742   0.07039   0.07040   0.09105
     Eigenvalues ---    0.13393   0.13397   0.28844   0.47507   0.76543
     Eigenvalues ---    0.92854   0.92905
 Angle between quadratic step and forces=  24.80 degrees.
 Linear search not attempted -- first point.
 B after Tr=    -0.000162   -0.000214   -0.000215
         Rot=    1.000000    0.000000    0.000001   -0.000007 Ang=   0.00 deg.
 Variable       Old X    -DE/DX   Delta X   Delta X   Delta X     New X
                                 (Linear)    (Quad)   (Total)
    X1        2.64717   0.00106   0.00000   0.00390   0.00374   2.65091
    Y1        0.00221  -0.00001   0.00000   0.00026   0.00009   0.00230
    Z1        0.00410  -0.00020   0.00000   0.00028   0.00007   0.00417
    X2        2.01180   0.00004   0.00000  -0.00198  -0.00212   2.00968
    Y2       -1.57571   0.00001   0.00000   0.00150   0.00132  -1.57439
    Z2        1.13797   0.00000   0.00000  -0.00060  -0.00081   1.13716
    X3        2.01398   0.00004   0.00000  -0.00153  -0.00171   2.01226
    Y3        1.77311   0.00001   0.00000  -0.00092  -0.00111   1.77200
    Z3        0.80561  -0.00002   0.00000  -0.00044  -0.00065   0.80495
    X4        2.00817   0.00012   0.00000  -0.00172  -0.00188   2.00629
    Y4       -0.18924   0.00003   0.00000   0.00066   0.00048  -0.18876
    Z4       -1.92899   0.00027   0.00000   0.00249   0.00228  -1.92671
    X5        6.10533   0.00350   0.00000   0.00998   0.00982   6.11515
    Y5       -0.00028  -0.00000   0.00000  -0.00025  -0.00037  -0.00065
    Z5       -0.00025  -0.00001   0.00000  -0.00030  -0.00051  -0.00076
    X6       -3.18485  -0.00475   0.00000  -0.00769  -0.00785  -3.19270
    Y6       -0.00032  -0.00004   0.00000  -0.00015  -0.00041  -0.00073
    Z6       -0.00070  -0.00004   0.00000  -0.00015  -0.00037  -0.00107
         Item               Value     Threshold  Converged?
 Maximum Force            0.004754     0.000450     NO 
 RMS     Force            0.001416     0.000300     NO 
 Maximum Displacement     0.009823     0.001800     NO 
 RMS     Displacement     0.003277     0.001200     NO 
 Predicted change in Energy=-3.659940D-05
 GradGradGradGradGradGradGradGradGradGradGradGradGradGradGradGradGradGrad

 1\1\GINC-FS\Force\RM062X\6-311G(d,p)\C1H3Br1Cl1(1-)\XINYAN\22-Jan-2019
 \0\\# M062X/6-311G** force nosymm int=ultrafine\\Title\\-1,1\C,1.40082
 ,0.00117,0.00217\H,1.0646,-0.83383,0.60219\H,1.06575,0.93829,0.42631\H
 ,1.06268,-0.10014,-1.02078\Cl,3.2308,-0.00015,-0.00013\Br,-1.68535,-0.
 00017,-0.00037\\Version=ES64L-G16RevA.03\HF=-3074.3580586\RMSD=4.541e-
 09\RMSF=1.416e-03\Dipole=1.6874023,0.0010908,0.0019835\Quadrupole=-14.
 4273811,7.2129581,7.214423,0.0006493,0.0007197,-0.0002098\PG=C01 [X(C1
 H3Br1Cl1)]\\@


 THERE IS MORE TO LIFE THAN INCREASING ITS SPEED.

                                       -- GANDHI
 Job cpu time:       0 days  0 hours  0 minutes 35.3 seconds.
 Elapsed time:       0 days  0 hours  0 minutes  8.0 seconds.
 File lengths (MBytes):  RWF=     10 Int=      0 D2E=      0 Chk=      2 Scr=      1
 Normal termination of Gaussian 16 at Tue Jan 22 16:56:55 2019.
