 Entering Gaussian System, Link 0=g16
 Input=CH3BrCl-22.gjf
 Output=CH3BrCl-22.log
 Initial command:
 /home/xinyan/g16/l1.exe "/scratch/tmp/Gau-13218.inp" -scrdir="/scratch/tmp/"
 Entering Link 1 = /home/xinyan/g16/l1.exe PID=     13219.
  
 Copyright (c) 1988,1990,1992,1993,1995,1998,2003,2009,2016,
            Gaussian, Inc.  All Rights Reserved.
  
 This is part of the Gaussian(R) 16 program.  It is based on
 the Gaussian(R) 09 system (copyright 2009, Gaussian, Inc.),
 the Gaussian(R) 03 system (copyright 2003, Gaussian, Inc.),
 the Gaussian(R) 98 system (copyright 1998, Gaussian, Inc.),
 the Gaussian(R) 94 system (copyright 1995, Gaussian, Inc.),
 the Gaussian 92(TM) system (copyright 1992, Gaussian, Inc.),
 the Gaussian 90(TM) system (copyright 1990, Gaussian, Inc.),
 the Gaussian 88(TM) system (copyright 1988, Gaussian, Inc.),
 the Gaussian 86(TM) system (copyright 1986, Carnegie Mellon
 University), and the Gaussian 82(TM) system (copyright 1983,
 Carnegie Mellon University). Gaussian is a federally registered
 trademark of Gaussian, Inc.
  
 This software contains proprietary and confidential information,
 including trade secrets, belonging to Gaussian, Inc.
  
 This software is provided under written license and may be
 used, copied, transmitted, or stored only in accord with that
 written license.
  
 The following legend is applicable only to US Government
 contracts under FAR:
  
                    RESTRICTED RIGHTS LEGEND
  
 Use, reproduction and disclosure by the US Government is
 subject to restrictions as set forth in subparagraphs (a)
 and (c) of the Commercial Computer Software - Restricted
 Rights clause in FAR 52.227-19.
  
 Gaussian, Inc.
 340 Quinnipiac St., Bldg. 40, Wallingford CT 06492
  
  
 ---------------------------------------------------------------
 Warning -- This program may not be used in any manner that
 competes with the business of Gaussian, Inc. or will provide
 assistance to any competitor of Gaussian, Inc.  The licensee
 of this program is prohibited from giving any competitor of
 Gaussian, Inc. access to this program.  By using this program,
 the user acknowledges that Gaussian, Inc. is engaged in the
 business of creating and licensing software in the field of
 computational chemistry and represents and warrants to the
 licensee that it is not a competitor of Gaussian, Inc. and that
 it will not use this program in any manner prohibited above.
 ---------------------------------------------------------------
  

 Cite this work as:
 Gaussian 16, Revision A.03,
 M. J. Frisch, G. W. Trucks, H. B. Schlegel, G. E. Scuseria, 
 M. A. Robb, J. R. Cheeseman, G. Scalmani, V. Barone, 
 G. A. Petersson, H. Nakatsuji, X. Li, M. Caricato, A. V. Marenich, 
 J. Bloino, B. G. Janesko, R. Gomperts, B. Mennucci, H. P. Hratchian, 
 J. V. Ortiz, A. F. Izmaylov, J. L. Sonnenberg, D. Williams-Young, 
 F. Ding, F. Lipparini, F. Egidi, J. Goings, B. Peng, A. Petrone, 
 T. Henderson, D. Ranasinghe, V. G. Zakrzewski, J. Gao, N. Rega, 
 G. Zheng, W. Liang, M. Hada, M. Ehara, K. Toyota, R. Fukuda, 
 J. Hasegawa, M. Ishida, T. Nakajima, Y. Honda, O. Kitao, H. Nakai, 
 T. Vreven, K. Throssell, J. A. Montgomery, Jr., J. E. Peralta, 
 F. Ogliaro, M. J. Bearpark, J. J. Heyd, E. N. Brothers, K. N. Kudin, 
 V. N. Staroverov, T. A. Keith, R. Kobayashi, J. Normand, 
 K. Raghavachari, A. P. Rendell, J. C. Burant, S. S. Iyengar, 
 J. Tomasi, M. Cossi, J. M. Millam, M. Klene, C. Adamo, R. Cammi, 
 J. W. Ochterski, R. L. Martin, K. Morokuma, O. Farkas, 
 J. B. Foresman, and D. J. Fox, Gaussian, Inc., Wallingford CT, 2016.
 
 ******************************************
 Gaussian 16:  ES64L-G16RevA.03 25-Dec-2016
                22-Jan-2019 
 ******************************************
 %nproc=5
 Will use up to    5 processors via shared memory.
 -------------------------------------------
 # M062X/6-311G** force nosymm int=ultrafine
 -------------------------------------------
 1/10=7,30=1,38=1/1,3;
 2/12=2,15=1,17=6,18=5,40=1/2;
 3/5=4,6=6,7=101,11=2,25=1,30=1,71=1,74=-55,75=-5/1,2,3;
 4//1;
 5/5=2,38=5/2;
 6/7=2,8=2,9=2,10=2,28=1/1;
 7/29=1,30=1/1,2,3,16;
 1/10=7,30=1/3;
 99//99;
 -----
 Title
 -----
 Symbolic Z-matrix:
 Charge = -1 Multiplicity = 1
 C                     0.4139    0.00084   0.00129 
 H                     0.73611  -0.83632   0.6042 
 H                     0.73532   0.94177   0.42515 
 H                     0.73617  -0.10233  -1.02508 
 Cl                    3.35328  -0.00019  -0.00048 
 Br                   -1.57697  -0.00009  -0.00004 
 

 GradGradGradGradGradGradGradGradGradGradGradGradGradGradGradGradGradGrad
 Berny optimization.
 Initialization pass.
 Trust Radius=3.00D-01 FncErr=1.00D-07 GrdErr=1.00D-07 EigMax=2.50D+02 EigMin=1.00D-04
 Number of steps in this run=      2 maximum allowed number of steps=      2.
 GradGradGradGradGradGradGradGradGradGradGradGradGradGradGradGradGradGrad

                          Input orientation:                          
 ---------------------------------------------------------------------
 Center     Atomic      Atomic             Coordinates (Angstroms)
 Number     Number       Type             X           Y           Z
 ---------------------------------------------------------------------
      1          6           0        0.413900    0.000840    0.001290
      2          1           0        0.736110   -0.836320    0.604200
      3          1           0        0.735320    0.941770    0.425150
      4          1           0        0.736170   -0.102330   -1.025080
      5         17           0        3.353280   -0.000190   -0.000480
      6         35           0       -1.576970   -0.000090   -0.000040
 ---------------------------------------------------------------------
                    Distance matrix (angstroms):
                    1          2          3          4          5
     1  C    0.000000
     2  H    1.080813   0.000000
     3  H    1.080887   1.787082   0.000000
     4  H    1.080712   1.786979   1.786984   0.000000
     5  Cl   2.939381   2.813242   2.814634   2.812384   0.000000
     6  Br   1.990871   2.532731   2.532701   2.532149   4.930250
                    6
     6  Br   0.000000
 Symmetry turned off by external request.
 This structure is nearly, but not quite of a higher symmetry.
 Consider Symm=Loose if the higher symmetry is desired.
 Stoichiometry    CH3BrCl(1-)
 Framework group  C1[X(CH3BrCl)]
 Deg. of freedom    12
 Full point group                 C1      NOp   1
 Rotational constants (GHZ):         157.0252643           0.8497111           0.8497107
 Standard basis: 6-311G(d,p) (5D, 7F)
   106 basis functions,   195 primitive gaussians,   111 cartesian basis functions
    31 alpha electrons       31 beta electrons
       nuclear repulsion energy       179.2784835233 Hartrees.
 NAtoms=    6 NActive=    6 NUniq=    6 SFac= 1.00D+00 NAtFMM=   60 NAOKFM=F Big=F
 Integral buffers will be    131072 words long.
 Raffenetti 2 integral format.
 Two-electron integral symmetry is turned off.
 One-electron integrals computed using PRISM.
 NBasis=   106 RedAO= T EigKep=  9.95D-03  NBF=   106
 NBsUse=   106 1.00D-06 EigRej= -1.00D+00 NBFU=   106
 ExpMin= 1.03D-01 ExpMax= 4.40D+05 ExpMxC= 1.51D+04 IAcc=3 IRadAn=         5 AccDes= 0.00D+00
 Harris functional with IExCor= 1009 and IRadAn=       5 diagonalized for initial guess.
 HarFok:  IExCor= 1009 AccDes= 0.00D+00 IRadAn=         5 IDoV= 1 UseB2=F ITyADJ=14
 ICtDFT=  3500011 ScaDFX=  1.000000  1.000000  1.000000  1.000000
 FoFCou: FMM=F IPFlag=           0 FMFlag=      100000 FMFlg1=           0
         NFxFlg=           0 DoJE=T BraDBF=F KetDBF=T FulRan=T
         wScrn=  0.000000 ICntrl=       500 IOpCl=  0 I1Cent=   200000004 NGrid=           0
         NMat0=    1 NMatS0=      1 NMatT0=    0 NMatD0=    1 NMtDS0=    0 NMtDT0=    0
 Symmetry not used in FoFCou.
 Keep R1 ints in memory in canonical form, NReq=20756204.
 Requested convergence on RMS density matrix=1.00D-08 within 128 cycles.
 Requested convergence on MAX density matrix=1.00D-06.
 Requested convergence on             energy=1.00D-06.
 No special actions if energy rises.
 Integral accuracy reduced to 1.0D-05 until final iterations.
 Initial convergence to 1.0D-05 achieved.  Increase integral accuracy.
 SCF Done:  E(RM062X) =  -3074.35133645     A.U. after   13 cycles
            NFock= 13  Conv=0.45D-08     -V/T= 2.0013

 **********************************************************************

            Population analysis using the SCF density.

 **********************************************************************

 Alpha  occ. eigenvalues -- -485.18874-102.36261 -63.18100 -57.00816 -57.00602
 Alpha  occ. eigenvalues --  -57.00602 -10.44288  -9.50433  -8.86795  -7.22549
 Alpha  occ. eigenvalues --   -7.22526  -7.22526  -6.69479  -6.68627  -6.68627
 Alpha  occ. eigenvalues --   -2.72633  -2.72340  -2.72340  -2.71585  -2.71585
 Alpha  occ. eigenvalues --   -0.75388  -0.61804  -0.58818  -0.36250  -0.36248
 Alpha  occ. eigenvalues --   -0.29811  -0.20773  -0.20772  -0.10518  -0.10517
 Alpha  occ. eigenvalues --   -0.10449
 Alpha virt. eigenvalues --    0.17424   0.23883   0.28724   0.28732   0.43902
 Alpha virt. eigenvalues --    0.45746   0.45747   0.46915   0.46917   0.55766
 Alpha virt. eigenvalues --    0.56546   0.56766   0.56774   0.67930   0.76202
 Alpha virt. eigenvalues --    0.76210   0.77716   0.81703   0.81704   0.85433
 Alpha virt. eigenvalues --    0.85441   0.92000   1.01973   1.09882   1.23313
 Alpha virt. eigenvalues --    1.23314   1.23736   1.23739   1.29425   1.29434
 Alpha virt. eigenvalues --    1.32126   1.62845   1.65821   1.65823   1.83947
 Alpha virt. eigenvalues --    1.85647   1.85649   2.08337   2.09466   2.09473
 Alpha virt. eigenvalues --    2.27365   2.30821   2.30826   2.43676   2.43680
 Alpha virt. eigenvalues --    2.49276   2.55799   2.59938   2.59948   2.69947
 Alpha virt. eigenvalues --    2.69964   3.09167   3.18276   3.89920   3.89943
 Alpha virt. eigenvalues --    4.42781   4.42782   4.52822   4.52826   4.81012
 Alpha virt. eigenvalues --    6.70722   7.70028   7.70028   7.80298   9.88621
 Alpha virt. eigenvalues --   24.09270  25.78959  25.78966  25.95523  48.27376
 Alpha virt. eigenvalues --  215.92111 290.84739 290.84740 290.979611020.76865
          Condensed to atoms (all electrons):
               1          2          3          4          5          6
     1  C    5.033990   0.408697   0.408667   0.408751  -0.013331   0.151378
     2  H    0.408697   0.489401  -0.018041  -0.018009  -0.006039  -0.050026
     3  H    0.408667  -0.018041   0.489556  -0.018027  -0.006023  -0.050028
     4  H    0.408751  -0.018009  -0.018027   0.489336  -0.006062  -0.050097
     5  Cl  -0.013331  -0.006039  -0.006023  -0.006062  17.950974   0.007944
     6  Br   0.151378  -0.050026  -0.050028  -0.050097   0.007944  35.247238
 Mulliken charges:
               1
     1  C   -0.398152
     2  H    0.194016
     3  H    0.193897
     4  H    0.194110
     5  Cl  -0.927462
     6  Br  -0.256409
 Sum of Mulliken charges =  -1.00000
 Mulliken charges with hydrogens summed into heavy atoms:
               1
     1  C    0.183871
     5  Cl  -0.927462
     6  Br  -0.256409
 Electronic spatial extent (au):  <R**2>=           1150.9544
 Charge=             -1.0000 electrons
 Dipole moment (field-independent basis, Debye):
    X=            -11.5301    Y=              0.0019    Z=              0.0034  Tot=             11.5301
 Quadrupole moment (field-independent basis, Debye-Ang):
   XX=            -97.7314   YY=            -43.0168   ZZ=            -43.0165
   XY=              0.0035   XZ=              0.0095   YZ=             -0.0003
 Traceless Quadrupole moment (field-independent basis, Debye-Ang):
   XX=            -36.4765   YY=             18.2381   ZZ=             18.2384
   XY=              0.0035   XZ=              0.0095   YZ=             -0.0003
 Octapole moment (field-independent basis, Debye-Ang**2):
  XXX=           -256.8364  YYY=              0.2808  ZZZ=             -0.9131  XYY=            -26.8748
  XXY=              0.0036  XXZ=              0.0174  XZZ=            -26.8744  YZZ=             -0.2843
  YYZ=              0.9125  XYZ=             -0.0007
 Hexadecapole moment (field-independent basis, Debye-Ang**3):
 XXXX=          -2044.2317 YYYY=            -62.9948 ZZZZ=            -62.9982 XXXY=              0.0494
 XXXZ=              0.1539 YYYX=              0.2236 YYYZ=              0.0026 ZZZX=             -0.6027
 ZZZY=             -0.0027 XXYY=           -258.5725 XXZZ=           -258.5713 YYZZ=            -20.9963
 XXYZ=             -0.0021 YYXZ=              0.6908 ZZXY=             -0.2024
 N-N= 1.792784835233D+02 E-N=-7.711040860326D+03  KE= 3.070214643865D+03
 Calling FoFJK, ICntrl=      2127 FMM=F ISym2X=0 I1Cent= 0 IOpClX= 0 NMat=1 NMatS=1 NMatT=0.
 -------------------------------------------------------------------
 Center     Atomic                   Forces (Hartrees/Bohr)
 Number     Number              X              Y              Z
 -------------------------------------------------------------------
      1        6          -0.000462070    0.000044099    0.000040612
      2        1          -0.000045368   -0.000007423    0.000003453
      3        1          -0.000066864   -0.000018964   -0.000019382
      4        1          -0.000007265   -0.000013204   -0.000046602
      5       17           0.003954433   -0.000003343   -0.000007623
      6       35          -0.003372866   -0.000001166    0.000029543
 -------------------------------------------------------------------
 Cartesian Forces:  Max     0.003954433 RMS     0.001230211

 GradGradGradGradGradGradGradGradGradGradGradGradGradGradGradGradGradGrad
 Berny optimization.
 Search for a local minimum.
 Step number   1 out of a maximum of    2
 All quantities printed in internal units (Hartrees-Bohrs-Radians)
 Second derivative matrix not updated -- first step.
 The second derivative matrix:
                          X1        Y1        Z1        X2        Y2
           X1           0.43906
           Y1          -0.00013   0.64615
           Z1          -0.00003  -0.00004   0.64626
           X2          -0.09825   0.07686  -0.05535   0.08223
           Y2           0.06607  -0.24544   0.11656  -0.07013   0.23941
           Z2          -0.04759   0.11655  -0.16754   0.05052  -0.12852
           X3          -0.09809  -0.08617  -0.03883   0.00800   0.01070
           Y3          -0.07405  -0.28797  -0.09206  -0.00836  -0.01190
           Z3          -0.03337  -0.09206  -0.12505   0.01250   0.01830
           X4          -0.09827   0.00949   0.09429   0.00802  -0.00665
           Y4           0.00816  -0.08607  -0.02446  -0.01453   0.01376
           Z4           0.08107  -0.02446  -0.32702   0.00398  -0.00347
           X5           0.00000   0.00000   0.00000   0.00000   0.00000
           Y5           0.00000   0.00000   0.00000   0.00000   0.00000
           Z5           0.00000   0.00000   0.00000   0.00000   0.00000
           X6          -0.14445  -0.00006  -0.00008   0.00000  -0.00000
           Y6          -0.00006  -0.02667   0.00000   0.01617   0.00417
           Z6          -0.00009   0.00000  -0.02665  -0.01164  -0.00287
                          Z2        X3        Y3        Z3        X4
           Z2           0.15351
           X3           0.01059   0.08208
           Y3          -0.01206   0.07860   0.28630
           Z3           0.01873   0.03542   0.10151   0.10667
           X4          -0.01352   0.00800   0.00382  -0.01454   0.08227
           Y4           0.02687   0.01503   0.00838  -0.03000  -0.00866
           Z4          -0.00695   0.00100   0.00036  -0.00155  -0.08605
           X5           0.00000   0.00000   0.00000   0.00000   0.00000
           Y5           0.00000   0.00000   0.00000   0.00000   0.00000
           Z5           0.00000   0.00000   0.00000   0.00000   0.00000
           X6          -0.00000   0.00001  -0.00000  -0.00000  -0.00001
           Y6          -0.00285  -0.01817   0.00519   0.00225   0.00199
           Z6           0.00224  -0.00818   0.00225   0.00120   0.01982
                          Y4        Z4        X5        Y5        Z5
           Y4           0.06368
           Z4           0.02698   0.32935
           X5           0.00000   0.00000   1.00000
           Y5           0.00000   0.00000   0.00000   1.00000
           Z5           0.00000   0.00000   0.00000   0.00000   1.00000
           X6          -0.00000  -0.00000   0.00000   0.00000   0.00000
           Y6           0.00025   0.00060   0.00000   0.00000   0.00000
           Z6           0.00061   0.00616   0.00000   0.00000   0.00000
                          X6        Y6        Z6
           X6           0.14445
           Y6           0.00006   0.01705
           Z6           0.00009  -0.00000   0.01705
 ITU=  0
     Eigenvalues ---    0.05141   0.05142   0.06558   0.08103   0.08104
     Eigenvalues ---    0.13806   0.13808   0.26071   0.63289   0.73881
     Eigenvalues ---    0.94668   0.94695
 Angle between quadratic step and forces=  51.05 degrees.
 Linear search not attempted -- first point.
 B after Tr=    -0.002792    0.000004    0.000068
         Rot=    1.000000    0.000000   -0.000011    0.000003 Ang=   0.00 deg.
 Variable       Old X    -DE/DX   Delta X   Delta X   Delta X     New X
                                 (Linear)    (Quad)   (Total)
    X1        0.78216  -0.00046   0.00000   0.00175  -0.00104   0.78112
    Y1        0.00159   0.00004   0.00000   0.00003   0.00003   0.00162
    Z1        0.00244   0.00004   0.00000  -0.00011  -0.00006   0.00238
    X2        1.39105  -0.00005   0.00000   0.00553   0.00275   1.39380
    Y2       -1.58042  -0.00001   0.00000   0.00078   0.00077  -1.57964
    Z2        1.14177   0.00000   0.00000  -0.00059  -0.00055   1.14122
    X3        1.38955  -0.00007   0.00000   0.00533   0.00257   1.39212
    Y3        1.77969  -0.00002   0.00000  -0.00086  -0.00086   1.77882
    Z3        0.80342  -0.00002   0.00000  -0.00043  -0.00039   0.80302
    X4        1.39116  -0.00001   0.00000   0.00610   0.00326   1.39442
    Y4       -0.19338  -0.00001   0.00000   0.00010   0.00010  -0.19328
    Z4       -1.93712  -0.00005   0.00000   0.00082   0.00086  -1.93626
    X5        6.33678   0.00395   0.00000   0.00539   0.00260   6.33938
    Y5       -0.00036  -0.00000   0.00000  -0.00002  -0.00006  -0.00042
    Z5       -0.00091  -0.00001   0.00000   0.00002  -0.00006  -0.00096
    X6       -2.98004  -0.00337   0.00000  -0.00735  -0.01014  -2.99018
    Y6       -0.00017  -0.00000   0.00000  -0.00000   0.00002  -0.00015
    Z6       -0.00008   0.00003   0.00000   0.00007   0.00020   0.00012
         Item               Value     Threshold  Converged?
 Maximum Force            0.003954     0.000450     NO 
 RMS     Force            0.001230     0.000300     NO 
 Maximum Displacement     0.010140     0.001800     NO 
 RMS     Displacement     0.002769     0.001200     NO 
 Predicted change in Energy=-3.345156D-05
 GradGradGradGradGradGradGradGradGradGradGradGradGradGradGradGradGradGrad

 1\1\GINC-FS\Force\RM062X\6-311G(d,p)\C1H3Br1Cl1(1-)\XINYAN\22-Jan-2019
 \0\\# M062X/6-311G** force nosymm int=ultrafine\\Title\\-1,1\C,0.4139,
 0.00084,0.00129\H,0.73611,-0.83632,0.6042\H,0.73532,0.94177,0.42515\H,
 0.73617,-0.10233,-1.02508\Cl,3.35328,-0.00019,-0.00048\Br,-1.57697,-0.
 00009,-0.00004\\Version=ES64L-G16RevA.03\HF=-3074.3513364\RMSD=4.536e-
 09\RMSF=1.230e-03\Dipole=-4.3348281,0.0008065,0.0014015\Quadrupole=-27
 .11938,13.5595714,13.5598086,0.0025693,0.0070957,-0.0002172\PG=C01 [X(
 C1H3Br1Cl1)]\\@


 I am not a vegetarian because I love animals;
 I am a vegetarian because I hate plants.
                               -- A. Whitney Brown
 Job cpu time:       0 days  0 hours  0 minutes 43.7 seconds.
 Elapsed time:       0 days  0 hours  0 minutes  9.4 seconds.
 File lengths (MBytes):  RWF=     10 Int=      0 D2E=      0 Chk=      2 Scr=      1
 Normal termination of Gaussian 16 at Tue Jan 22 16:52:19 2019.
