 Entering Gaussian System, Link 0=g16
 Input=CH3BrCl-43.gjf
 Output=CH3BrCl-43.log
 Initial command:
 /home/xinyan/g16/l1.exe "/scratch/tmp/Gau-14747.inp" -scrdir="/scratch/tmp/"
 Entering Link 1 = /home/xinyan/g16/l1.exe PID=     14748.
  
 Copyright (c) 1988,1990,1992,1993,1995,1998,2003,2009,2016,
            Gaussian, Inc.  All Rights Reserved.
  
 This is part of the Gaussian(R) 16 program.  It is based on
 the Gaussian(R) 09 system (copyright 2009, Gaussian, Inc.),
 the Gaussian(R) 03 system (copyright 2003, Gaussian, Inc.),
 the Gaussian(R) 98 system (copyright 1998, Gaussian, Inc.),
 the Gaussian(R) 94 system (copyright 1995, Gaussian, Inc.),
 the Gaussian 92(TM) system (copyright 1992, Gaussian, Inc.),
 the Gaussian 90(TM) system (copyright 1990, Gaussian, Inc.),
 the Gaussian 88(TM) system (copyright 1988, Gaussian, Inc.),
 the Gaussian 86(TM) system (copyright 1986, Carnegie Mellon
 University), and the Gaussian 82(TM) system (copyright 1983,
 Carnegie Mellon University). Gaussian is a federally registered
 trademark of Gaussian, Inc.
  
 This software contains proprietary and confidential information,
 including trade secrets, belonging to Gaussian, Inc.
  
 This software is provided under written license and may be
 used, copied, transmitted, or stored only in accord with that
 written license.
  
 The following legend is applicable only to US Government
 contracts under FAR:
  
                    RESTRICTED RIGHTS LEGEND
  
 Use, reproduction and disclosure by the US Government is
 subject to restrictions as set forth in subparagraphs (a)
 and (c) of the Commercial Computer Software - Restricted
 Rights clause in FAR 52.227-19.
  
 Gaussian, Inc.
 340 Quinnipiac St., Bldg. 40, Wallingford CT 06492
  
  
 ---------------------------------------------------------------
 Warning -- This program may not be used in any manner that
 competes with the business of Gaussian, Inc. or will provide
 assistance to any competitor of Gaussian, Inc.  The licensee
 of this program is prohibited from giving any competitor of
 Gaussian, Inc. access to this program.  By using this program,
 the user acknowledges that Gaussian, Inc. is engaged in the
 business of creating and licensing software in the field of
 computational chemistry and represents and warrants to the
 licensee that it is not a competitor of Gaussian, Inc. and that
 it will not use this program in any manner prohibited above.
 ---------------------------------------------------------------
  

 Cite this work as:
 Gaussian 16, Revision A.03,
 M. J. Frisch, G. W. Trucks, H. B. Schlegel, G. E. Scuseria, 
 M. A. Robb, J. R. Cheeseman, G. Scalmani, V. Barone, 
 G. A. Petersson, H. Nakatsuji, X. Li, M. Caricato, A. V. Marenich, 
 J. Bloino, B. G. Janesko, R. Gomperts, B. Mennucci, H. P. Hratchian, 
 J. V. Ortiz, A. F. Izmaylov, J. L. Sonnenberg, D. Williams-Young, 
 F. Ding, F. Lipparini, F. Egidi, J. Goings, B. Peng, A. Petrone, 
 T. Henderson, D. Ranasinghe, V. G. Zakrzewski, J. Gao, N. Rega, 
 G. Zheng, W. Liang, M. Hada, M. Ehara, K. Toyota, R. Fukuda, 
 J. Hasegawa, M. Ishida, T. Nakajima, Y. Honda, O. Kitao, H. Nakai, 
 T. Vreven, K. Throssell, J. A. Montgomery, Jr., J. E. Peralta, 
 F. Ogliaro, M. J. Bearpark, J. J. Heyd, E. N. Brothers, K. N. Kudin, 
 V. N. Staroverov, T. A. Keith, R. Kobayashi, J. Normand, 
 K. Raghavachari, A. P. Rendell, J. C. Burant, S. S. Iyengar, 
 J. Tomasi, M. Cossi, J. M. Millam, M. Klene, C. Adamo, R. Cammi, 
 J. W. Ochterski, R. L. Martin, K. Morokuma, O. Farkas, 
 J. B. Foresman, and D. J. Fox, Gaussian, Inc., Wallingford CT, 2016.
 
 ******************************************
 Gaussian 16:  ES64L-G16RevA.03 25-Dec-2016
                22-Jan-2019 
 ******************************************
 %nproc=5
 Will use up to    5 processors via shared memory.
 -------------------------------------------
 # M062X/6-311G** force nosymm int=ultrafine
 -------------------------------------------
 1/10=7,30=1,38=1/1,3;
 2/12=2,15=1,17=6,18=5,40=1/2;
 3/5=4,6=6,7=101,11=2,25=1,30=1,71=1,74=-55,75=-5/1,2,3;
 4//1;
 5/5=2,38=5/2;
 6/7=2,8=2,9=2,10=2,28=1/1;
 7/29=1,30=1/1,2,3,16;
 1/10=7,30=1/3;
 99//99;
 -----
 Title
 -----
 Symbolic Z-matrix:
 Charge = -1 Multiplicity = 1
 C                     1.23629   0.00014   0.00112 
 H                     0.93911  -0.84332   0.60518 
 H                     0.93917   0.94483   0.42996 
 H                     0.93792  -0.1008   -1.03103 
 Cl                    3.1361   -0.00004  -0.00019 
 Br                   -1.61356  -0.00001  -0.00014 
 

 GradGradGradGradGradGradGradGradGradGradGradGradGradGradGradGradGradGrad
 Berny optimization.
 Initialization pass.
 Trust Radius=3.00D-01 FncErr=1.00D-07 GrdErr=1.00D-07 EigMax=2.50D+02 EigMin=1.00D-04
 Number of steps in this run=      2 maximum allowed number of steps=      2.
 GradGradGradGradGradGradGradGradGradGradGradGradGradGradGradGradGradGrad

                          Input orientation:                          
 ---------------------------------------------------------------------
 Center     Atomic      Atomic             Coordinates (Angstroms)
 Number     Number       Type             X           Y           Z
 ---------------------------------------------------------------------
      1          6           0        1.236290    0.000140    0.001120
      2          1           0        0.939110   -0.843320    0.605180
      3          1           0        0.939170    0.944830    0.429960
      4          1           0        0.937920   -0.100800   -1.031030
      5         17           0        3.136100   -0.000040   -0.000190
      6         35           0       -1.613560   -0.000010   -0.000140
 ---------------------------------------------------------------------
                    Distance matrix (angstroms):
                    1          2          3          4          5
     1  C    0.000000
     2  H    1.079180   0.000000
     3  H    1.079177   1.796714   0.000000
     4  H    1.079142   1.796808   1.796618   0.000000
     5  Cl   1.899810   2.429889   2.429879   2.429975   0.000000
     6  Br   2.849850   2.755668   2.755747   2.753714   4.749660
                    6
     6  Br   0.000000
 Symmetry turned off by external request.
 This structure is nearly, but not quite of a higher symmetry.
 Consider Symm=Loose if the higher symmetry is desired.
 Stoichiometry    CH3BrCl(1-)
 Framework group  C1[X(CH3BrCl)]
 Deg. of freedom    12
 Full point group                 C1      NOp   1
 Rotational constants (GHZ):         155.3357418           0.8834916           0.8834910
 Standard basis: 6-311G(d,p) (5D, 7F)
   106 basis functions,   195 primitive gaussians,   111 cartesian basis functions
    31 alpha electrons       31 beta electrons
       nuclear repulsion energy       174.6810573289 Hartrees.
 NAtoms=    6 NActive=    6 NUniq=    6 SFac= 1.00D+00 NAtFMM=   60 NAOKFM=F Big=F
 Integral buffers will be    131072 words long.
 Raffenetti 2 integral format.
 Two-electron integral symmetry is turned off.
 One-electron integrals computed using PRISM.
 NBasis=   106 RedAO= T EigKep=  1.11D-02  NBF=   106
 NBsUse=   106 1.00D-06 EigRej= -1.00D+00 NBFU=   106
 ExpMin= 1.03D-01 ExpMax= 4.40D+05 ExpMxC= 1.51D+04 IAcc=3 IRadAn=         5 AccDes= 0.00D+00
 Harris functional with IExCor= 1009 and IRadAn=       5 diagonalized for initial guess.
 HarFok:  IExCor= 1009 AccDes= 0.00D+00 IRadAn=         5 IDoV= 1 UseB2=F ITyADJ=14
 ICtDFT=  3500011 ScaDFX=  1.000000  1.000000  1.000000  1.000000
 FoFCou: FMM=F IPFlag=           0 FMFlag=      100000 FMFlg1=           0
         NFxFlg=           0 DoJE=T BraDBF=F KetDBF=T FulRan=T
         wScrn=  0.000000 ICntrl=       500 IOpCl=  0 I1Cent=   200000004 NGrid=           0
         NMat0=    1 NMatS0=      1 NMatT0=    0 NMatD0=    1 NMtDS0=    0 NMtDT0=    0
 Symmetry not used in FoFCou.
 Keep R1 ints in memory in canonical form, NReq=20756204.
 Requested convergence on RMS density matrix=1.00D-08 within 128 cycles.
 Requested convergence on MAX density matrix=1.00D-06.
 Requested convergence on             energy=1.00D-06.
 No special actions if energy rises.
 Integral accuracy reduced to 1.0D-05 until final iterations.
 Initial convergence to 1.0D-05 achieved.  Increase integral accuracy.
 SCF Done:  E(RM062X) =  -3074.35371724     A.U. after   14 cycles
            NFock= 14  Conv=0.33D-08     -V/T= 2.0013

 **********************************************************************

            Population analysis using the SCF density.

 **********************************************************************

 Alpha  occ. eigenvalues -- -485.04484-102.51578 -63.03721 -56.86306 -56.86299
 Alpha  occ. eigenvalues --  -56.86299 -10.44408  -9.65748  -8.72329  -7.38177
 Alpha  occ. eigenvalues --   -7.37644  -7.37644  -6.54496  -6.54444  -6.54444
 Alpha  occ. eigenvalues --   -2.57681  -2.57665  -2.57664  -2.57624  -2.57624
 Alpha  occ. eigenvalues --   -0.78649  -0.62569  -0.55760  -0.36503  -0.36500
 Alpha  occ. eigenvalues --   -0.30917  -0.22505  -0.22504  -0.09747  -0.09746
 Alpha  occ. eigenvalues --   -0.09569
 Alpha virt. eigenvalues --    0.19813   0.23509   0.28899   0.28905   0.43458
 Alpha virt. eigenvalues --    0.46772   0.46775   0.47755   0.47756   0.52453
 Alpha virt. eigenvalues --    0.56218   0.56223   0.63595   0.71655   0.73553
 Alpha virt. eigenvalues --    0.76996   0.77002   0.88827   0.94467   0.94468
 Alpha virt. eigenvalues --    0.95067   0.95069   0.99106   1.04189   1.04191
 Alpha virt. eigenvalues --    1.09593   1.09595   1.19861   1.24884   1.32171
 Alpha virt. eigenvalues --    1.32175   1.62422   1.65944   1.65950   1.86679
 Alpha virt. eigenvalues --    1.87732   1.87734   2.04859   2.16573   2.16580
 Alpha virt. eigenvalues --    2.26684   2.26688   2.28538   2.38237   2.38242
 Alpha virt. eigenvalues --    2.53018   2.56570   2.60671   2.60675   2.71320
 Alpha virt. eigenvalues --    2.71327   3.11394   3.25827   3.90682   3.90696
 Alpha virt. eigenvalues --    4.56139   4.56141   4.57153   4.57157   4.71597
 Alpha virt. eigenvalues --    6.79326   7.81642   7.81645   7.87810   9.85154
 Alpha virt. eigenvalues --   24.08839  25.69806  25.69809  26.23016  48.37941
 Alpha virt. eigenvalues --  215.90273 290.98196 290.98198 291.045301020.86612
          Condensed to atoms (all electrons):
               1          2          3          4          5          6
     1  C    5.054182   0.409747   0.409738   0.409798   0.126846  -0.035854
     2  H    0.409747   0.503350  -0.019330  -0.019303  -0.057754  -0.007994
     3  H    0.409738  -0.019330   0.503385  -0.019322  -0.057751  -0.007989
     4  H    0.409798  -0.019303  -0.019322   0.503207  -0.057764  -0.008044
     5  Cl   0.126846  -0.057754  -0.057751  -0.057764  17.339930   0.012956
     6  Br  -0.035854  -0.007994  -0.007989  -0.008044   0.012956  35.939984
 Mulliken charges:
               1
     1  C   -0.374457
     2  H    0.191284
     3  H    0.191269
     4  H    0.191427
     5  Cl  -0.306464
     6  Br  -0.893059
 Sum of Mulliken charges =  -1.00000
 Mulliken charges with hydrogens summed into heavy atoms:
               1
     1  C    0.199523
     5  Cl  -0.306464
     6  Br  -0.893059
 Electronic spatial extent (au):  <R**2>=           1094.6738
 Charge=             -1.0000 electrons
 Dipole moment (field-independent basis, Debye):
    X=              2.6091    Y=              0.0005    Z=              0.0025  Tot=              2.6091
 Quadrupole moment (field-independent basis, Debye-Ang):
   XX=            -72.9678   YY=            -43.1906   ZZ=            -43.1895
   XY=              0.0002   XZ=              0.0016   YZ=             -0.0005
 Traceless Quadrupole moment (field-independent basis, Debye-Ang):
   XX=            -19.8518   YY=              9.9254   ZZ=              9.9265
   XY=              0.0002   XZ=              0.0016   YZ=             -0.0005
 Octapole moment (field-independent basis, Debye-Ang**2):
  XXX=            -85.2417  YYY=              0.2731  ZZZ=             -0.9126  XYY=            -16.5095
  XXY=              0.0007  XXZ=             -0.0004  XZZ=            -16.5119  YZZ=             -0.2737
  YYZ=              0.9056  XYZ=             -0.0003
 Hexadecapole moment (field-independent basis, Debye-Ang**3):
 XXXX=          -1471.0320 YYYY=            -63.8175 ZZZZ=            -63.8187 XXXY=             -0.0030
 XXXZ=             -0.0403 YYYX=              0.2737 YYYZ=              0.0007 ZZZX=             -0.9258
 ZZZY=             -0.0018 XXYY=           -230.3417 XXZZ=           -230.3423 YYZZ=            -21.2696
 XXYZ=             -0.0012 YYXZ=              0.9016 ZZXY=             -0.2738
 N-N= 1.746810573289D+02 E-N=-7.704296802189D+03  KE= 3.070234871425D+03
 Calling FoFJK, ICntrl=      2127 FMM=F ISym2X=0 I1Cent= 0 IOpClX= 0 NMat=1 NMatS=1 NMatT=0.
 -------------------------------------------------------------------
 Center     Atomic                   Forces (Hartrees/Bohr)
 Number     Number              X              Y              Z
 -------------------------------------------------------------------
      1        6           0.017931596    0.000006924    0.000008701
      2        1           0.000710924    0.000077704   -0.000056718
      3        1           0.000710251   -0.000088190   -0.000036529
      4        1           0.000705218    0.000014369    0.000092427
      5       17          -0.005296919   -0.000006649    0.000000559
      6       35          -0.014761070   -0.000004158   -0.000008440
 -------------------------------------------------------------------
 Cartesian Forces:  Max     0.017931596 RMS     0.005622491

 GradGradGradGradGradGradGradGradGradGradGradGradGradGradGradGradGradGrad
 Berny optimization.
 Search for a local minimum.
 Step number   1 out of a maximum of    2
 All quantities printed in internal units (Hartrees-Bohrs-Radians)
 Second derivative matrix not updated -- first step.
 The second derivative matrix:
                          X1        Y1        Z1        X2        Y2
           X1           0.47349
           Y1           0.00002   0.66306
           Z1           0.00018  -0.00005   0.66315
           X2          -0.09243  -0.07093   0.05077   0.07718
           Y2          -0.06254  -0.25171   0.11761   0.06609   0.24452
           Z2           0.04477   0.11762  -0.17174  -0.04732  -0.13003
           X3          -0.09241   0.07942   0.03604   0.00761  -0.01010
           Y3           0.07003  -0.29350  -0.09352   0.00790  -0.01159
           Z3           0.03178  -0.09353  -0.12995  -0.01212   0.01854
           X4          -0.09262  -0.00853  -0.08711   0.00764   0.00656
           Y4          -0.00752  -0.08985  -0.02404   0.01406   0.01473
           Z4          -0.07684  -0.02405  -0.33345  -0.00358  -0.00334
           X5          -0.19603   0.00002   0.00012   0.00001  -0.00000
           Y5           0.00001  -0.02801   0.00000  -0.01711   0.00405
           Z5           0.00011   0.00000  -0.02801   0.01225  -0.00278
           X6           0.00000   0.00000   0.00000   0.00000   0.00000
           Y6           0.00000   0.00000   0.00000   0.00000   0.00000
           Z6           0.00000   0.00000   0.00000   0.00000   0.00000
                          Z2        X3        Y3        Z3        X4
           Z2           0.15609
           X3          -0.01036   0.07717
           Y3          -0.01230  -0.07400   0.29073
           Z3           0.01992  -0.03359   0.10340   0.10990
           X4           0.01291   0.00763  -0.00392   0.01393   0.07737
           Y4           0.02748  -0.01449   0.00934  -0.03060   0.00795
           Z4          -0.00642  -0.00079   0.00022  -0.00103   0.08121
           X5           0.00000   0.00001   0.00000   0.00000  -0.00001
           Y5          -0.00277   0.01917   0.00503   0.00220  -0.00205
           Z5           0.00215   0.00870   0.00221   0.00116  -0.02094
           X6           0.00000   0.00000   0.00000   0.00000   0.00000
           Y6           0.00000   0.00000   0.00000   0.00000   0.00000
           Z6           0.00000   0.00000   0.00000   0.00000   0.00000
                          Y4        Z4        X5        Y5        Z5
           Y4           0.06556
           Z4           0.02659   0.33491
           X5           0.00000   0.00000   0.19603
           Y5           0.00022   0.00057  -0.00002   0.01871
           Z5           0.00057   0.00600  -0.00012  -0.00000   0.01871
           X6           0.00000   0.00000   0.00000   0.00000   0.00000
           Y6           0.00000   0.00000   0.00000   0.00000   0.00000
           Z6           0.00000   0.00000   0.00000   0.00000   0.00000
                          X6        Y6        Z6
           X6           1.00000
           Y6           0.00000   1.00000
           Z6           0.00000   0.00000   1.00000
 ITU=  0
     Eigenvalues ---    0.03089   0.03089   0.06756   0.06757   0.08305
     Eigenvalues ---    0.13981   0.13982   0.28843   0.46439   0.67267
     Eigenvalues ---    0.95321   0.95336
 Angle between quadratic step and forces=  45.34 degrees.
 Linear search not attempted -- first point.
 B after Tr=    -0.017028   -0.000051   -0.000069
         Rot=    1.000000    0.000000    0.000004   -0.000002 Ang=   0.00 deg.
 Variable       Old X    -DE/DX   Delta X   Delta X   Delta X     New X
                                 (Linear)    (Quad)   (Total)
    X1        2.33625   0.01793   0.00000   0.04394   0.02691   2.36316
    Y1        0.00026   0.00001   0.00000   0.00009   0.00004   0.00031
    Z1        0.00212   0.00001   0.00000   0.00010   0.00005   0.00217
    X2        1.77466   0.00071   0.00000   0.03257   0.01554   1.79020
    Y2       -1.59364   0.00008   0.00000   0.00242   0.00238  -1.59126
    Z2        1.14362  -0.00006   0.00000  -0.00156  -0.00161   1.14201
    X3        1.77477   0.00071   0.00000   0.03261   0.01557   1.79034
    Y3        1.78547  -0.00009   0.00000  -0.00252  -0.00256   1.78291
    Z3        0.81251  -0.00004   0.00000  -0.00108  -0.00113   0.81137
    X4        1.77241   0.00071   0.00000   0.03245   0.01544   1.78785
    Y4       -0.19048   0.00001   0.00000   0.00038   0.00034  -0.19015
    Z4       -1.94836   0.00009   0.00000   0.00298   0.00292  -1.94544
    X5        5.92637  -0.00530   0.00000  -0.01551  -0.03254   5.89383
    Y5       -0.00008  -0.00001   0.00000  -0.00006  -0.00010  -0.00017
    Z5       -0.00036   0.00000   0.00000  -0.00006  -0.00008  -0.00044
    X6       -3.04919  -0.01476   0.00000  -0.02388  -0.04091  -3.09010
    Y6       -0.00002  -0.00000   0.00000  -0.00004  -0.00010  -0.00012
    Z6       -0.00026  -0.00001   0.00000  -0.00006  -0.00015  -0.00042
         Item               Value     Threshold  Converged?
 Maximum Force            0.017932     0.000450     NO 
 RMS     Force            0.005622     0.000300     NO 
 Maximum Displacement     0.040912     0.001800     NO 
 RMS     Displacement     0.015282     0.001200     NO 
 Predicted change in Energy=-9.464022D-05
 GradGradGradGradGradGradGradGradGradGradGradGradGradGradGradGradGradGrad

 1\1\GINC-FS\Force\RM062X\6-311G(d,p)\C1H3Br1Cl1(1-)\XINYAN\22-Jan-2019
 \0\\# M062X/6-311G** force nosymm int=ultrafine\\Title\\-1,1\C,1.23629
 ,0.00014,0.00112\H,0.93911,-0.84332,0.60518\H,0.93917,0.94483,0.42996\
 H,0.93792,-0.1008,-1.03103\Cl,3.1361,-0.00004,-0.00019\Br,-1.61356,-0.
 00001,-0.00014\\Version=ES64L-G16RevA.03\HF=-3074.3537172\RMSD=3.301e-
 09\RMSF=5.622e-03\Dipole=1.2456007,0.0002236,0.0010545\Quadrupole=-14.
 7593555,7.3792726,7.3800829,0.0001517,0.0012118,-0.0003481\PG=C01 [X(C
 1H3Br1Cl1)]\\@


 "THE TIME HAS COME", THE WALRUS SAID,
 "TO TALK OF MANY THINGS,
 OF SHOES AND SHIPS AND SEALING WAX,
 OF CABBAGES AND KINGS,
 AND WHY THE SEA IS BOILING HOT,
 AND WHETHER PIGS HAVE WINGS."
 Job cpu time:       0 days  0 hours  0 minutes 37.4 seconds.
 Elapsed time:       0 days  0 hours  0 minutes  8.0 seconds.
 File lengths (MBytes):  RWF=     10 Int=      0 D2E=      0 Chk=      2 Scr=      1
 Normal termination of Gaussian 16 at Tue Jan 22 16:55:21 2019.
