 Entering Gaussian System, Link 0=g16
 Input=CH3BrCl-56.gjf
 Output=CH3BrCl-56.log
 Initial command:
 /home/xinyan/g16/l1.exe "/scratch/tmp/Gau-15624.inp" -scrdir="/scratch/tmp/"
 Entering Link 1 = /home/xinyan/g16/l1.exe PID=     15625.
  
 Copyright (c) 1988,1990,1992,1993,1995,1998,2003,2009,2016,
            Gaussian, Inc.  All Rights Reserved.
  
 This is part of the Gaussian(R) 16 program.  It is based on
 the Gaussian(R) 09 system (copyright 2009, Gaussian, Inc.),
 the Gaussian(R) 03 system (copyright 2003, Gaussian, Inc.),
 the Gaussian(R) 98 system (copyright 1998, Gaussian, Inc.),
 the Gaussian(R) 94 system (copyright 1995, Gaussian, Inc.),
 the Gaussian 92(TM) system (copyright 1992, Gaussian, Inc.),
 the Gaussian 90(TM) system (copyright 1990, Gaussian, Inc.),
 the Gaussian 88(TM) system (copyright 1988, Gaussian, Inc.),
 the Gaussian 86(TM) system (copyright 1986, Carnegie Mellon
 University), and the Gaussian 82(TM) system (copyright 1983,
 Carnegie Mellon University). Gaussian is a federally registered
 trademark of Gaussian, Inc.
  
 This software contains proprietary and confidential information,
 including trade secrets, belonging to Gaussian, Inc.
  
 This software is provided under written license and may be
 used, copied, transmitted, or stored only in accord with that
 written license.
  
 The following legend is applicable only to US Government
 contracts under FAR:
  
                    RESTRICTED RIGHTS LEGEND
  
 Use, reproduction and disclosure by the US Government is
 subject to restrictions as set forth in subparagraphs (a)
 and (c) of the Commercial Computer Software - Restricted
 Rights clause in FAR 52.227-19.
  
 Gaussian, Inc.
 340 Quinnipiac St., Bldg. 40, Wallingford CT 06492
  
  
 ---------------------------------------------------------------
 Warning -- This program may not be used in any manner that
 competes with the business of Gaussian, Inc. or will provide
 assistance to any competitor of Gaussian, Inc.  The licensee
 of this program is prohibited from giving any competitor of
 Gaussian, Inc. access to this program.  By using this program,
 the user acknowledges that Gaussian, Inc. is engaged in the
 business of creating and licensing software in the field of
 computational chemistry and represents and warrants to the
 licensee that it is not a competitor of Gaussian, Inc. and that
 it will not use this program in any manner prohibited above.
 ---------------------------------------------------------------
  

 Cite this work as:
 Gaussian 16, Revision A.03,
 M. J. Frisch, G. W. Trucks, H. B. Schlegel, G. E. Scuseria, 
 M. A. Robb, J. R. Cheeseman, G. Scalmani, V. Barone, 
 G. A. Petersson, H. Nakatsuji, X. Li, M. Caricato, A. V. Marenich, 
 J. Bloino, B. G. Janesko, R. Gomperts, B. Mennucci, H. P. Hratchian, 
 J. V. Ortiz, A. F. Izmaylov, J. L. Sonnenberg, D. Williams-Young, 
 F. Ding, F. Lipparini, F. Egidi, J. Goings, B. Peng, A. Petrone, 
 T. Henderson, D. Ranasinghe, V. G. Zakrzewski, J. Gao, N. Rega, 
 G. Zheng, W. Liang, M. Hada, M. Ehara, K. Toyota, R. Fukuda, 
 J. Hasegawa, M. Ishida, T. Nakajima, Y. Honda, O. Kitao, H. Nakai, 
 T. Vreven, K. Throssell, J. A. Montgomery, Jr., J. E. Peralta, 
 F. Ogliaro, M. J. Bearpark, J. J. Heyd, E. N. Brothers, K. N. Kudin, 
 V. N. Staroverov, T. A. Keith, R. Kobayashi, J. Normand, 
 K. Raghavachari, A. P. Rendell, J. C. Burant, S. S. Iyengar, 
 J. Tomasi, M. Cossi, J. M. Millam, M. Klene, C. Adamo, R. Cammi, 
 J. W. Ochterski, R. L. Martin, K. Morokuma, O. Farkas, 
 J. B. Foresman, and D. J. Fox, Gaussian, Inc., Wallingford CT, 2016.
 
 ******************************************
 Gaussian 16:  ES64L-G16RevA.03 25-Dec-2016
                22-Jan-2019 
 ******************************************
 %nproc=5
 Will use up to    5 processors via shared memory.
 -------------------------------------------
 # M062X/6-311G** force nosymm int=ultrafine
 -------------------------------------------
 1/10=7,30=1,38=1/1,3;
 2/12=2,15=1,17=6,18=5,40=1/2;
 3/5=4,6=6,7=101,11=2,25=1,30=1,71=1,74=-55,75=-5/1,2,3;
 4//1;
 5/5=2,38=5/2;
 6/7=2,8=2,9=2,10=2,28=1/1;
 7/29=1,30=1/1,2,3,16;
 1/10=7,30=1/3;
 99//99;
 -----
 Title
 -----
 Symbolic Z-matrix:
 Charge = -1 Multiplicity = 1
 C                     1.41091   0.00159   0.00233 
 H                     1.07398  -0.83271   0.60293 
 H                     1.0747    0.93908   0.42558 
 H                     1.07234  -0.10024  -1.02002 
 Cl                    3.24157  -0.0002   -0.00011 
 Br                   -1.69202  -0.00023  -0.00042 
 

 GradGradGradGradGradGradGradGradGradGradGradGradGradGradGradGradGradGrad
 Berny optimization.
 Initialization pass.
 Trust Radius=3.00D-01 FncErr=1.00D-07 GrdErr=1.00D-07 EigMax=2.50D+02 EigMin=1.00D-04
 Number of steps in this run=      2 maximum allowed number of steps=      2.
 GradGradGradGradGradGradGradGradGradGradGradGradGradGradGradGradGradGrad

                          Input orientation:                          
 ---------------------------------------------------------------------
 Center     Atomic      Atomic             Coordinates (Angstroms)
 Number     Number       Type             X           Y           Z
 ---------------------------------------------------------------------
      1          6           0        1.410910    0.001590    0.002330
      2          1           0        1.073980   -0.832710    0.602930
      3          1           0        1.074700    0.939080    0.425580
      4          1           0        1.072340   -0.100240   -1.020020
      5         17           0        3.241570   -0.000200   -0.000110
      6         35           0       -1.692020   -0.000230   -0.000420
 ---------------------------------------------------------------------
                    Distance matrix (angstroms):
                    1          2          3          4          5
     1  C    0.000000
     2  H    1.081803   0.000000
     3  H    1.082158   1.780644   0.000000
     4  H    1.081757   1.780585   1.780436   0.000000
     5  Cl   1.830663   2.398995   2.399747   2.399121   0.000000
     6  Br   3.102932   2.950900   2.952714   2.948096   4.933590
                    6
     6  Br   0.000000
 Symmetry turned off by external request.
 This structure is nearly, but not quite of a higher symmetry.
 Consider Symm=Loose if the higher symmetry is desired.
 Stoichiometry    CH3BrCl(1-)
 Framework group  C1[X(CH3BrCl)]
 Deg. of freedom    12
 Full point group                 C1      NOp   1
 Rotational constants (GHZ):         158.1624664           0.8120448           0.8120444
 Standard basis: 6-311G(d,p) (5D, 7F)
   106 basis functions,   195 primitive gaussians,   111 cartesian basis functions
    31 alpha electrons       31 beta electrons
       nuclear repulsion energy       168.8933301123 Hartrees.
 NAtoms=    6 NActive=    6 NUniq=    6 SFac= 1.00D+00 NAtFMM=   60 NAOKFM=F Big=F
 Integral buffers will be    131072 words long.
 Raffenetti 2 integral format.
 Two-electron integral symmetry is turned off.
 One-electron integrals computed using PRISM.
 NBasis=   106 RedAO= T EigKep=  1.10D-02  NBF=   106
 NBsUse=   106 1.00D-06 EigRej= -1.00D+00 NBFU=   106
 ExpMin= 1.03D-01 ExpMax= 4.40D+05 ExpMxC= 1.51D+04 IAcc=3 IRadAn=         5 AccDes= 0.00D+00
 Harris functional with IExCor= 1009 and IRadAn=       5 diagonalized for initial guess.
 HarFok:  IExCor= 1009 AccDes= 0.00D+00 IRadAn=         5 IDoV= 1 UseB2=F ITyADJ=14
 ICtDFT=  3500011 ScaDFX=  1.000000  1.000000  1.000000  1.000000
 FoFCou: FMM=F IPFlag=           0 FMFlag=      100000 FMFlg1=           0
         NFxFlg=           0 DoJE=T BraDBF=F KetDBF=T FulRan=T
         wScrn=  0.000000 ICntrl=       500 IOpCl=  0 I1Cent=   200000004 NGrid=           0
         NMat0=    1 NMatS0=      1 NMatT0=    0 NMatD0=    1 NMtDS0=    0 NMtDT0=    0
 Symmetry not used in FoFCou.
 Keep R1 ints in memory in canonical form, NReq=20756204.
 Requested convergence on RMS density matrix=1.00D-08 within 128 cycles.
 Requested convergence on MAX density matrix=1.00D-06.
 Requested convergence on             energy=1.00D-06.
 No special actions if energy rises.
 Integral accuracy reduced to 1.0D-05 until final iterations.
 Initial convergence to 1.0D-05 achieved.  Increase integral accuracy.
 SCF Done:  E(RM062X) =  -3074.35820279     A.U. after   13 cycles
            NFock= 13  Conv=0.45D-08     -V/T= 2.0013

 **********************************************************************

            Population analysis using the SCF density.

 **********************************************************************

 Alpha  occ. eigenvalues -- -485.03879-102.53089 -63.03094 -56.85681 -56.85676
 Alpha  occ. eigenvalues --  -56.85676 -10.44606  -9.67300  -8.71684  -7.39754
 Alpha  occ. eigenvalues --   -7.39183  -7.39183  -6.53837  -6.53806  -6.53806
 Alpha  occ. eigenvalues --   -2.57024  -2.57014  -2.57014  -2.56989  -2.56989
 Alpha  occ. eigenvalues --   -0.80988  -0.62588  -0.55192  -0.37101  -0.37090
 Alpha  occ. eigenvalues --   -0.33034  -0.23408  -0.23407  -0.09117  -0.09086
 Alpha  occ. eigenvalues --   -0.09085
 Alpha virt. eigenvalues --    0.20220   0.23544   0.28370   0.28384   0.42949
 Alpha virt. eigenvalues --    0.46222   0.46227   0.46924   0.46925   0.54011
 Alpha virt. eigenvalues --    0.56611   0.56620   0.59219   0.71570   0.74584
 Alpha virt. eigenvalues --    0.76404   0.76424   0.86349   0.95145   0.95148
 Alpha virt. eigenvalues --    0.96038   0.96048   0.99954   1.01489   1.01500
 Alpha virt. eigenvalues --    1.08082   1.08084   1.13065   1.25044   1.32336
 Alpha virt. eigenvalues --    1.32343   1.63045   1.65847   1.65850   1.86768
 Alpha virt. eigenvalues --    1.86770   1.87870   2.08321   2.17702   2.17712
 Alpha virt. eigenvalues --    2.25821   2.26328   2.26329   2.39012   2.39021
 Alpha virt. eigenvalues --    2.52426   2.53883   2.59185   2.59213   2.69265
 Alpha virt. eigenvalues --    2.69302   3.07058   3.31424   3.90806   3.90888
 Alpha virt. eigenvalues --    4.56731   4.56733   4.57469   4.57474   4.67536
 Alpha virt. eigenvalues --    6.78555   7.82063   7.82066   7.86790   9.85643
 Alpha virt. eigenvalues --   24.07850  25.69251  25.69257  26.22761  48.37333
 Alpha virt. eigenvalues --  215.90854 290.98595 290.98599 291.031561020.85637
          Condensed to atoms (all electrons):
               1          2          3          4          5          6
     1  C    5.064078   0.403511   0.403410   0.403539   0.143396  -0.024855
     2  H    0.403511   0.503659  -0.020717  -0.020650  -0.057655   0.003243
     3  H    0.403410  -0.020717   0.503905  -0.020716  -0.057554   0.003264
     4  H    0.403539  -0.020650  -0.020716   0.503419  -0.057645   0.003242
     5  Cl   0.143396  -0.057655  -0.057554  -0.057645  17.270375   0.007040
     6  Br  -0.024855   0.003243   0.003264   0.003242   0.007040  35.932858
 Mulliken charges:
               1
     1  C   -0.393079
     2  H    0.188610
     3  H    0.188407
     4  H    0.188810
     5  Cl  -0.247957
     6  Br  -0.924792
 Sum of Mulliken charges =  -1.00000
 Mulliken charges with hydrogens summed into heavy atoms:
               1
     1  C    0.172748
     5  Cl  -0.247957
     6  Br  -0.924792
 Electronic spatial extent (au):  <R**2>=           1180.1166
 Charge=             -1.0000 electrons
 Dipole moment (field-independent basis, Debye):
    X=              3.7370    Y=              0.0033    Z=              0.0048  Tot=              3.7370
 Quadrupole moment (field-independent basis, Debye-Ang):
   XX=            -72.4009   YY=            -43.1942   ZZ=            -43.1926
   XY=             -0.0000   XZ=             -0.0003   YZ=             -0.0009
 Traceless Quadrupole moment (field-independent basis, Debye-Ang):
   XX=            -19.4717   YY=              9.7351   ZZ=              9.7366
   XY=             -0.0000   XZ=             -0.0003   YZ=             -0.0009
 Octapole moment (field-independent basis, Debye-Ang**2):
  XXX=            -78.9441  YYY=              0.2567  ZZZ=             -0.8803  XYY=            -16.6020
  XXY=             -0.0066  XXZ=             -0.0065  XZZ=            -16.6059  YZZ=             -0.2701
  YYZ=              0.8599  XYZ=             -0.0001
 Hexadecapole moment (field-independent basis, Debye-Ang**3):
 XXXX=          -1566.5107 YYYY=            -63.7432 ZZZZ=            -63.7468 XXXY=             -0.0997
 XXXZ=             -0.1718 YYYX=              0.2579 YYYZ=              0.0044 ZZZX=             -1.0915
 ZZZY=             -0.0057 XXYY=           -246.3661 XXZZ=           -246.3676 YYZZ=            -21.2434
 XXYZ=             -0.0017 YYXZ=              0.9561 ZZXY=             -0.3211
 N-N= 1.688933301123D+02 E-N=-7.692634796843D+03  KE= 3.070222279477D+03
 Calling FoFJK, ICntrl=      2127 FMM=F ISym2X=0 I1Cent= 0 IOpClX= 0 NMat=1 NMatS=1 NMatT=0.
 -------------------------------------------------------------------
 Center     Atomic                   Forces (Hartrees/Bohr)
 Number     Number              X              Y              Z
 -------------------------------------------------------------------
      1        6           0.001036618    0.000186562    0.000097497
      2        1           0.000035972   -0.000053979    0.000041170
      3        1           0.000179625   -0.000088121   -0.000036634
      4        1           0.000025279   -0.000031046   -0.000066674
      5       17           0.002835101    0.000027963    0.000008618
      6       35          -0.004112594   -0.000041379   -0.000043977
 -------------------------------------------------------------------
 Cartesian Forces:  Max     0.004112594 RMS     0.001204804

 GradGradGradGradGradGradGradGradGradGradGradGradGradGradGradGradGradGrad
 Berny optimization.
 Search for a local minimum.
 Step number   1 out of a maximum of    2
 All quantities printed in internal units (Hartrees-Bohrs-Radians)
 Second derivative matrix not updated -- first step.
 The second derivative matrix:
                          X1        Y1        Z1        X2        Y2
           X1           0.54448
           Y1           0.00005   0.64164
           Z1           0.00018  -0.00023   0.64197
           X2          -0.10200  -0.07843   0.05644   0.08541
           Y2          -0.06804  -0.24249   0.11613   0.07245   0.23676
           Z2           0.04897   0.11614  -0.16480  -0.05215  -0.12746
           X3          -0.10177   0.08780   0.03963   0.00826  -0.01102
           Y3           0.07614  -0.28442  -0.09178   0.00867  -0.01212
           Z3           0.03437  -0.09179  -0.12258  -0.01264   0.01809
           X4          -0.10229  -0.00963  -0.09652   0.00833   0.00662
           Y4          -0.00836  -0.08359  -0.02412   0.01482   0.01310
           Z4          -0.08379  -0.02413  -0.32346  -0.00423  -0.00350
           X5          -0.23843   0.00020   0.00028  -0.00000   0.00000
           Y5           0.00021  -0.03113  -0.00000  -0.01750   0.00475
           Z5           0.00028  -0.00000  -0.03113   0.01258  -0.00325
           X6           0.00000   0.00000   0.00000   0.00000   0.00000
           Y6           0.00000   0.00000   0.00000   0.00000   0.00000
           Z6           0.00000   0.00000   0.00000   0.00000   0.00000
                          Z2        X3        Y3        Z3        X4
           Z2           0.15145
           X3          -0.01068   0.08518
           Y3          -0.01197  -0.08108   0.28279
           Z3           0.01803  -0.03660   0.10074   0.10515
           X4           0.01387   0.00829  -0.00374   0.01486   0.08571
           Y4           0.02651  -0.01535   0.00785  -0.02958   0.00888
           Z4          -0.00723  -0.00122   0.00046  -0.00198   0.08923
           X5           0.00000   0.00003   0.00001   0.00000  -0.00003
           Y5          -0.00322   0.01965   0.00590   0.00254  -0.00214
           Z5           0.00254   0.00886   0.00256   0.00138  -0.02144
           X6           0.00000   0.00000   0.00000   0.00000   0.00000
           Y6           0.00000   0.00000   0.00000   0.00000   0.00000
           Z6           0.00000   0.00000   0.00000   0.00000   0.00000
                          Y4        Z4        X5        Y5        Z5
           Y4           0.06234
           Z4           0.02649   0.32564
           X5           0.00000   0.00001   0.23843
           Y5           0.00030   0.00068  -0.00021   0.02018
           Z5           0.00070   0.00703  -0.00029  -0.00000   0.02018
           X6           0.00000   0.00000   0.00000   0.00000   0.00000
           Y6           0.00000   0.00000   0.00000   0.00000   0.00000
           Z6           0.00000   0.00000   0.00000   0.00000   0.00000
                          X6        Y6        Z6
           X6           1.00000
           Y6           0.00000   1.00000
           Z6           0.00000   0.00000   1.00000
 ITU=  0
     Eigenvalues ---    0.02725   0.02725   0.07039   0.07042   0.09107
     Eigenvalues ---    0.13382   0.13387   0.28820   0.47502   0.76552
     Eigenvalues ---    0.92799   0.92885
 Angle between quadratic step and forces=  22.94 degrees.
 Linear search not attempted -- first point.
 B after Tr=    -0.000437   -0.000258   -0.000288
         Rot=    1.000000   -0.000000    0.000021   -0.000030 Ang=  -0.00 deg.
 Variable       Old X    -DE/DX   Delta X   Delta X   Delta X     New X
                                 (Linear)    (Quad)   (Total)
    X1        2.66623   0.00104   0.00000   0.00353   0.00310   2.66933
    Y1        0.00300   0.00019   0.00000   0.00024   0.00014   0.00315
    Z1        0.00440   0.00010   0.00000   0.00031   0.00014   0.00454
    X2        2.02953   0.00004   0.00000  -0.00126  -0.00166   2.02787
    Y2       -1.57359  -0.00005   0.00000   0.00119   0.00105  -1.57254
    Z2        1.13937   0.00004   0.00000  -0.00012  -0.00032   1.13905
    X3        2.03089   0.00018   0.00000   0.00072   0.00015   2.03103
    Y3        1.77460  -0.00009   0.00000  -0.00071  -0.00085   1.77376
    Z3        0.80423  -0.00004   0.00000   0.00003  -0.00017   0.80406
    X4        2.02643   0.00003   0.00000  -0.00170  -0.00205   2.02438
    Y4       -0.18943  -0.00003   0.00000   0.00042   0.00028  -0.18914
    Z4       -1.92756  -0.00007   0.00000   0.00144   0.00123  -1.92633
    X5        6.12568   0.00284   0.00000   0.00799   0.00756   6.13324
    Y5       -0.00038   0.00003   0.00000  -0.00012  -0.00001  -0.00039
    Z5       -0.00021   0.00001   0.00000  -0.00024  -0.00027  -0.00048
    X6       -3.19745  -0.00411   0.00000  -0.00665  -0.00709  -3.20455
    Y6       -0.00043  -0.00004   0.00000  -0.00017  -0.00062  -0.00105
    Z6       -0.00079  -0.00004   0.00000  -0.00019  -0.00062  -0.00141
         Item               Value     Threshold  Converged?
 Maximum Force            0.004113     0.000450     NO 
 RMS     Force            0.001205     0.000300     NO 
 Maximum Displacement     0.007556     0.001800     NO 
 RMS     Displacement     0.002670     0.001200     NO 
 Predicted change in Energy=-2.351769D-05
 GradGradGradGradGradGradGradGradGradGradGradGradGradGradGradGradGradGrad

 1\1\GINC-FS\Force\RM062X\6-311G(d,p)\C1H3Br1Cl1(1-)\XINYAN\22-Jan-2019
 \0\\# M062X/6-311G** force nosymm int=ultrafine\\Title\\-1,1\C,1.41091
 ,0.00159,0.00233\H,1.07398,-0.83271,0.60293\H,1.0747,0.93908,0.42558\H
 ,1.07234,-0.10024,-1.02002\Cl,3.24157,-0.0002,-0.00011\Br,-1.69202,-0.
 00023,-0.00042\\Version=ES64L-G16RevA.03\HF=-3074.3582028\RMSD=4.484e-
 09\RMSF=1.205e-03\Dipole=1.7048419,0.0014445,0.0020903\Quadrupole=-14.
 4767011,7.2377748,7.2389264,-0.0000185,-0.0002268,-0.0006987\PG=C01 [X
 (C1H3Br1Cl1)]\\@


 TOWERING GENIUS DISDAINS A BEATEN PATH.  IT SEEKS 
 REGIONS HITHERTO UNEXPLORED.

                                -- ABRAHAM LINCOLN
 Job cpu time:       0 days  0 hours  0 minutes 35.3 seconds.
 Elapsed time:       0 days  0 hours  0 minutes  7.9 seconds.
 File lengths (MBytes):  RWF=     10 Int=      0 D2E=      0 Chk=      2 Scr=      1
 Normal termination of Gaussian 16 at Tue Jan 22 16:57:03 2019.
