 Entering Gaussian System, Link 0=g16
 Input=CH3BrCl-63.gjf
 Output=CH3BrCl-63.log
 Initial command:
 /home/xinyan/g16/l1.exe "/scratch/tmp/Gau-16086.inp" -scrdir="/scratch/tmp/"
 Entering Link 1 = /home/xinyan/g16/l1.exe PID=     16087.
  
 Copyright (c) 1988,1990,1992,1993,1995,1998,2003,2009,2016,
            Gaussian, Inc.  All Rights Reserved.
  
 This is part of the Gaussian(R) 16 program.  It is based on
 the Gaussian(R) 09 system (copyright 2009, Gaussian, Inc.),
 the Gaussian(R) 03 system (copyright 2003, Gaussian, Inc.),
 the Gaussian(R) 98 system (copyright 1998, Gaussian, Inc.),
 the Gaussian(R) 94 system (copyright 1995, Gaussian, Inc.),
 the Gaussian 92(TM) system (copyright 1992, Gaussian, Inc.),
 the Gaussian 90(TM) system (copyright 1990, Gaussian, Inc.),
 the Gaussian 88(TM) system (copyright 1988, Gaussian, Inc.),
 the Gaussian 86(TM) system (copyright 1986, Carnegie Mellon
 University), and the Gaussian 82(TM) system (copyright 1983,
 Carnegie Mellon University). Gaussian is a federally registered
 trademark of Gaussian, Inc.
  
 This software contains proprietary and confidential information,
 including trade secrets, belonging to Gaussian, Inc.
  
 This software is provided under written license and may be
 used, copied, transmitted, or stored only in accord with that
 written license.
  
 The following legend is applicable only to US Government
 contracts under FAR:
  
                    RESTRICTED RIGHTS LEGEND
  
 Use, reproduction and disclosure by the US Government is
 subject to restrictions as set forth in subparagraphs (a)
 and (c) of the Commercial Computer Software - Restricted
 Rights clause in FAR 52.227-19.
  
 Gaussian, Inc.
 340 Quinnipiac St., Bldg. 40, Wallingford CT 06492
  
  
 ---------------------------------------------------------------
 Warning -- This program may not be used in any manner that
 competes with the business of Gaussian, Inc. or will provide
 assistance to any competitor of Gaussian, Inc.  The licensee
 of this program is prohibited from giving any competitor of
 Gaussian, Inc. access to this program.  By using this program,
 the user acknowledges that Gaussian, Inc. is engaged in the
 business of creating and licensing software in the field of
 computational chemistry and represents and warrants to the
 licensee that it is not a competitor of Gaussian, Inc. and that
 it will not use this program in any manner prohibited above.
 ---------------------------------------------------------------
  

 Cite this work as:
 Gaussian 16, Revision A.03,
 M. J. Frisch, G. W. Trucks, H. B. Schlegel, G. E. Scuseria, 
 M. A. Robb, J. R. Cheeseman, G. Scalmani, V. Barone, 
 G. A. Petersson, H. Nakatsuji, X. Li, M. Caricato, A. V. Marenich, 
 J. Bloino, B. G. Janesko, R. Gomperts, B. Mennucci, H. P. Hratchian, 
 J. V. Ortiz, A. F. Izmaylov, J. L. Sonnenberg, D. Williams-Young, 
 F. Ding, F. Lipparini, F. Egidi, J. Goings, B. Peng, A. Petrone, 
 T. Henderson, D. Ranasinghe, V. G. Zakrzewski, J. Gao, N. Rega, 
 G. Zheng, W. Liang, M. Hada, M. Ehara, K. Toyota, R. Fukuda, 
 J. Hasegawa, M. Ishida, T. Nakajima, Y. Honda, O. Kitao, H. Nakai, 
 T. Vreven, K. Throssell, J. A. Montgomery, Jr., J. E. Peralta, 
 F. Ogliaro, M. J. Bearpark, J. J. Heyd, E. N. Brothers, K. N. Kudin, 
 V. N. Staroverov, T. A. Keith, R. Kobayashi, J. Normand, 
 K. Raghavachari, A. P. Rendell, J. C. Burant, S. S. Iyengar, 
 J. Tomasi, M. Cossi, J. M. Millam, M. Klene, C. Adamo, R. Cammi, 
 J. W. Ochterski, R. L. Martin, K. Morokuma, O. Farkas, 
 J. B. Foresman, and D. J. Fox, Gaussian, Inc., Wallingford CT, 2016.
 
 ******************************************
 Gaussian 16:  ES64L-G16RevA.03 25-Dec-2016
                22-Jan-2019 
 ******************************************
 %nproc=5
 Will use up to    5 processors via shared memory.
 -------------------------------------------
 # M062X/6-311G** force nosymm int=ultrafine
 -------------------------------------------
 1/10=7,30=1,38=1/1,3;
 2/12=2,15=1,17=6,18=5,40=1/2;
 3/5=4,6=6,7=101,11=2,25=1,30=1,71=1,74=-55,75=-5/1,2,3;
 4//1;
 5/5=2,38=5/2;
 6/7=2,8=2,9=2,10=2,28=1/1;
 7/29=1,30=1/1,2,3,16;
 1/10=7,30=1/3;
 99//99;
 -----
 Title
 -----
 Symbolic Z-matrix:
 Charge = -1 Multiplicity = 1
 C                     1.48421   0.00716   0.00626 
 H                     1.14208  -0.81623   0.62012 
 H                     1.14945   0.95215   0.4156 
 H                     1.13945  -0.10942  -1.01305 
 Cl                    3.31293  -0.00073  -0.00018 
 Br                   -1.73746  -0.00111  -0.00116 
 

 GradGradGradGradGradGradGradGradGradGradGradGradGradGradGradGradGradGrad
 Berny optimization.
 Initialization pass.
 Trust Radius=3.00D-01 FncErr=1.00D-07 GrdErr=1.00D-07 EigMax=2.50D+02 EigMin=1.00D-04
 Number of steps in this run=      2 maximum allowed number of steps=      2.
 GradGradGradGradGradGradGradGradGradGradGradGradGradGradGradGradGradGrad

                          Input orientation:                          
 ---------------------------------------------------------------------
 Center     Atomic      Atomic             Coordinates (Angstroms)
 Number     Number       Type             X           Y           Z
 ---------------------------------------------------------------------
      1          6           0        1.484210    0.007160    0.006260
      2          1           0        1.142080   -0.816230    0.620120
      3          1           0        1.149450    0.952150    0.415600
      4          1           0        1.139450   -0.109420   -1.013050
      5         17           0        3.312930   -0.000730   -0.000180
      6         35           0       -1.737460   -0.001110   -0.001160
 ---------------------------------------------------------------------
                    Distance matrix (angstroms):
                    1          2          3          4          5
     1  C    0.000000
     2  H    1.082519   0.000000
     3  H    1.082880   1.780183   0.000000
     4  H    1.082332   1.779559   1.779908   0.000000
     5  Cl   1.828748   2.400500   2.400312   2.400361   0.000000
     6  Br   3.221689   3.056495   3.068655   3.051600   5.050390
                    6
     6  Br   0.000000
 Symmetry turned off by external request.
 Stoichiometry    CH3BrCl(1-)
 Framework group  C1[X(CH3BrCl)]
 Deg. of freedom    12
 Full point group                 C1      NOp   1
 Rotational constants (GHZ):         158.2161254           0.7727245           0.7727217
 Standard basis: 6-311G(d,p) (5D, 7F)
   106 basis functions,   195 primitive gaussians,   111 cartesian basis functions
    31 alpha electrons       31 beta electrons
       nuclear repulsion energy       165.4508678299 Hartrees.
 NAtoms=    6 NActive=    6 NUniq=    6 SFac= 1.00D+00 NAtFMM=   60 NAOKFM=F Big=F
 Integral buffers will be    131072 words long.
 Raffenetti 2 integral format.
 Two-electron integral symmetry is turned off.
 One-electron integrals computed using PRISM.
 NBasis=   106 RedAO= T EigKep=  1.12D-02  NBF=   106
 NBsUse=   106 1.00D-06 EigRej= -1.00D+00 NBFU=   106
 ExpMin= 1.03D-01 ExpMax= 4.40D+05 ExpMxC= 1.51D+04 IAcc=3 IRadAn=         5 AccDes= 0.00D+00
 Harris functional with IExCor= 1009 and IRadAn=       5 diagonalized for initial guess.
 HarFok:  IExCor= 1009 AccDes= 0.00D+00 IRadAn=         5 IDoV= 1 UseB2=F ITyADJ=14
 ICtDFT=  3500011 ScaDFX=  1.000000  1.000000  1.000000  1.000000
 FoFCou: FMM=F IPFlag=           0 FMFlag=      100000 FMFlg1=           0
         NFxFlg=           0 DoJE=T BraDBF=F KetDBF=T FulRan=T
         wScrn=  0.000000 ICntrl=       500 IOpCl=  0 I1Cent=   200000004 NGrid=           0
         NMat0=    1 NMatS0=      1 NMatT0=    0 NMatD0=    1 NMtDS0=    0 NMtDT0=    0
 Symmetry not used in FoFCou.
 Keep R1 ints in memory in canonical form, NReq=20756204.
 Requested convergence on RMS density matrix=1.00D-08 within 128 cycles.
 Requested convergence on MAX density matrix=1.00D-06.
 Requested convergence on             energy=1.00D-06.
 No special actions if energy rises.
 Integral accuracy reduced to 1.0D-05 until final iterations.
 Initial convergence to 1.0D-05 achieved.  Increase integral accuracy.
 SCF Done:  E(RM062X) =  -3074.35870267     A.U. after   13 cycles
            NFock= 13  Conv=0.43D-08     -V/T= 2.0014

 **********************************************************************

            Population analysis using the SCF density.

 **********************************************************************

 Alpha  occ. eigenvalues -- -485.03780-102.53551 -63.02988 -56.85576 -56.85570
 Alpha  occ. eigenvalues --  -56.85570 -10.45047  -9.67753  -8.71571  -7.40213
 Alpha  occ. eigenvalues --   -7.39634  -7.39634  -6.53726  -6.53693  -6.53693
 Alpha  occ. eigenvalues --   -2.56913  -2.56902  -2.56902  -2.56874  -2.56874
 Alpha  occ. eigenvalues --   -0.81425  -0.62906  -0.55063  -0.37460  -0.37455
 Alpha  occ. eigenvalues --   -0.33466  -0.23782  -0.23781  -0.09034  -0.08943
 Alpha  occ. eigenvalues --   -0.08942
 Alpha virt. eigenvalues --    0.19719   0.23352   0.28044   0.28089   0.42507
 Alpha virt. eigenvalues --    0.45909   0.45913   0.46588   0.46592   0.54530
 Alpha virt. eigenvalues --    0.56635   0.56658   0.57782   0.70970   0.75112
 Alpha virt. eigenvalues --    0.76004   0.76042   0.85851   0.95289   0.95293
 Alpha virt. eigenvalues --    0.96157   0.96198   0.99485   1.00906   1.00917
 Alpha virt. eigenvalues --    1.07671   1.07673   1.09735   1.24531   1.31863
 Alpha virt. eigenvalues --    1.31879   1.62730   1.65444   1.65455   1.86312
 Alpha virt. eigenvalues --    1.86326   1.86821   2.09042   2.17936   2.17942
 Alpha virt. eigenvalues --    2.24199   2.25749   2.25752   2.38700   2.38702
 Alpha virt. eigenvalues --    2.50420   2.53254   2.58807   2.58811   2.68665
 Alpha virt. eigenvalues --    2.68742   3.04542   3.31187   3.90405   3.90449
 Alpha virt. eigenvalues --    4.56840   4.56842   4.57457   4.57473   4.65290
 Alpha virt. eigenvalues --    6.77973   7.82080   7.82090   7.85980   9.85163
 Alpha virt. eigenvalues --   24.07228  25.68795  25.68804  26.21828  48.36805
 Alpha virt. eigenvalues --  215.90362 290.98585 290.98599 291.023911020.84916
          Condensed to atoms (all electrons):
               1          2          3          4          5          6
     1  C    5.059751   0.400806   0.400694   0.400857   0.150743  -0.018175
     2  H    0.400806   0.501894  -0.020655  -0.020546  -0.056403   0.005802
     3  H    0.400694  -0.020655   0.503042  -0.020628  -0.056421   0.005732
     4  H    0.400857  -0.020546  -0.020628   0.501453  -0.056423   0.005829
     5  Cl   0.150743  -0.056403  -0.056421  -0.056423  17.252639   0.005106
     6  Br  -0.018175   0.005802   0.005732   0.005829   0.005106  35.928584
 Mulliken charges:
               1
     1  C   -0.394677
     2  H    0.189102
     3  H    0.188237
     4  H    0.189458
     5  Cl  -0.239241
     6  Br  -0.932879
 Sum of Mulliken charges =  -1.00000
 Mulliken charges with hydrogens summed into heavy atoms:
               1
     1  C    0.172120
     5  Cl  -0.239241
     6  Br  -0.932879
 Electronic spatial extent (au):  <R**2>=           1234.6786
 Charge=             -1.0000 electrons
 Dipole moment (field-independent basis, Debye):
    X=              4.0591    Y=              0.0142    Z=              0.0125  Tot=              4.0591
 Quadrupole moment (field-independent basis, Debye-Ang):
   XX=            -73.0556   YY=            -43.1932   ZZ=            -43.1916
   XY=              0.0054   XZ=              0.0001   YZ=             -0.0008
 Traceless Quadrupole moment (field-independent basis, Debye-Ang):
   XX=            -19.9088   YY=              9.9536   ZZ=              9.9552
   XY=              0.0054   XZ=              0.0001   YZ=             -0.0008
 Octapole moment (field-independent basis, Debye-Ang**2):
  XXX=            -79.6818  YYY=              0.2643  ZZZ=             -0.8993  XYY=            -16.9292
  XXY=             -0.0121  XXZ=             -0.0172  XZZ=            -16.9417  YZZ=             -0.3226
  YYZ=              0.8403  XYZ=              0.0040
 Hexadecapole moment (field-independent basis, Debye-Ang**3):
 XXXX=          -1643.3015 YYYY=            -63.7089 ZZZZ=            -63.7324 XXXY=             -0.4458
 XXXZ=             -0.4957 YYYX=              0.1265 YYYZ=              0.0212 ZZZX=             -1.3376
 ZZZY=             -0.0176 XXYY=           -257.3590 XXZZ=           -257.3755 YYZZ=            -21.2304
 XXYZ=              0.0041 YYXZ=              0.9355 ZZXY=             -0.4554
 N-N= 1.654508678299D+02 E-N=-7.685662931042D+03  KE= 3.070197985333D+03
 Calling FoFJK, ICntrl=      2127 FMM=F ISym2X=0 I1Cent= 0 IOpClX= 0 NMat=1 NMatS=1 NMatT=0.
 -------------------------------------------------------------------
 Center     Atomic                   Forces (Hartrees/Bohr)
 Number     Number              X              Y              Z
 -------------------------------------------------------------------
      1        6          -0.000272997    0.000188678    0.000163304
      2        1          -0.000052419   -0.000028238    0.000010397
      3        1           0.000004061   -0.000140488   -0.000075322
      4        1          -0.000071350   -0.000031112   -0.000112025
      5       17           0.001011425    0.000017719    0.000022419
      6       35          -0.000618721   -0.000006559   -0.000008773
 -------------------------------------------------------------------
 Cartesian Forces:  Max     0.001011425 RMS     0.000297323

 GradGradGradGradGradGradGradGradGradGradGradGradGradGradGradGradGradGrad
 Berny optimization.
 Search for a local minimum.
 Step number   1 out of a maximum of    2
 All quantities printed in internal units (Hartrees-Bohrs-Radians)
 Second derivative matrix not updated -- first step.
 The second derivative matrix:
                          X1        Y1        Z1        X2        Y2
           X1           0.54795
           Y1           0.00063   0.63896
           Z1           0.00048  -0.00012   0.63929
           X2          -0.10303  -0.07828   0.05828   0.08632
           Y2          -0.06783  -0.23726   0.11681   0.07228   0.23131
           Z2           0.05052   0.11687  -0.16775  -0.05386  -0.12819
           X3          -0.10162   0.08797   0.03809   0.00825  -0.01128
           Y3           0.07602  -0.28665  -0.08927   0.00842  -0.01204
           Z3           0.03292  -0.08928  -0.11924  -0.01269   0.01856
           X4          -0.10354  -0.01122  -0.09759   0.00848   0.00683
           Y4          -0.00972  -0.08376  -0.02742   0.01486   0.01322
           Z4          -0.08466  -0.02747  -0.32100  -0.00457  -0.00382
           X5          -0.23976   0.00090   0.00073  -0.00003   0.00001
           Y5           0.00090  -0.03129   0.00000  -0.01728   0.00476
           Z5           0.00074   0.00000  -0.03130   0.01284  -0.00336
           X6           0.00000   0.00000   0.00000   0.00000   0.00000
           Y6           0.00000   0.00000   0.00000   0.00000   0.00000
           Z6           0.00000   0.00000   0.00000   0.00000   0.00000
                          Z2        X3        Y3        Z3        X4
           Z2           0.15496
           X3          -0.01054   0.08495
           Y3          -0.01145  -0.08099   0.28538
           Z3           0.01782  -0.03508   0.09791   0.10176
           X4           0.01388   0.00831  -0.00348   0.01484   0.08683
           Y4           0.02602  -0.01549   0.00735  -0.02963   0.01035
           Z4          -0.00767  -0.00104   0.00034  -0.00163   0.09024
           X5          -0.00000   0.00012   0.00003   0.00002  -0.00009
           Y5          -0.00325   0.01980   0.00596   0.00244  -0.00247
           Z5           0.00265   0.00857   0.00247   0.00129  -0.02137
           X6           0.00000   0.00000   0.00000   0.00000   0.00000
           Y6           0.00000   0.00000   0.00000   0.00000   0.00000
           Z6           0.00000   0.00000   0.00000   0.00000   0.00000
                          Y4        Z4        X5        Y5        Z5
           Y4           0.06286
           Z4           0.03016   0.32317
           X5           0.00000   0.00003   0.23976
           Y5           0.00034   0.00080  -0.00095   0.02023
           Z5           0.00088   0.00713  -0.00077   0.00000   0.02023
           X6           0.00000   0.00000   0.00000   0.00000   0.00000
           Y6           0.00000   0.00000   0.00000   0.00000   0.00000
           Z6           0.00000   0.00000   0.00000   0.00000   0.00000
                          X6        Y6        Z6
           X6           1.00000
           Y6           0.00000   1.00000
           Z6           0.00000   0.00000   1.00000
 ITU=  0
     Eigenvalues ---    0.02598   0.02598   0.07043   0.07046   0.09143
     Eigenvalues ---    0.13318   0.13323   0.28741   0.47538   0.76976
     Eigenvalues ---    0.92424   0.92496
 Angle between quadratic step and forces=  43.80 degrees.
 Linear search not attempted -- first point.
 B after Tr=     0.000559    0.000143    0.000171
         Rot=    1.000000    0.000000   -0.000005    0.000002 Ang=   0.00 deg.
 Variable       Old X    -DE/DX   Delta X   Delta X   Delta X     New X
                                 (Linear)    (Quad)   (Total)
    X1        2.80475  -0.00027   0.00000  -0.00031   0.00025   2.80500
    Y1        0.01353   0.00019   0.00000  -0.00006   0.00007   0.01360
    Z1        0.01183   0.00016   0.00000  -0.00010   0.00004   0.01187
    X2        2.15822  -0.00005   0.00000  -0.00166  -0.00110   2.15712
    Y2       -1.54245  -0.00003   0.00000   0.00002   0.00015  -1.54230
    Z2        1.17186   0.00001   0.00000  -0.00043  -0.00028   1.17158
    X3        2.17215   0.00000   0.00000  -0.00172  -0.00115   2.17100
    Y3        1.79930  -0.00014   0.00000  -0.00080  -0.00067   1.79864
    Z3        0.78537  -0.00008   0.00000  -0.00052  -0.00037   0.78501
    X4        2.15325  -0.00007   0.00000  -0.00145  -0.00091   2.15234
    Y4       -0.20677  -0.00003   0.00000  -0.00020  -0.00006  -0.20684
    Z4       -1.91439  -0.00011   0.00000  -0.00015   0.00000  -1.91438
    X5        6.26053   0.00101   0.00000   0.00280   0.00335   6.26388
    Y5       -0.00138   0.00002   0.00000   0.00015   0.00027  -0.00111
    Z5       -0.00034   0.00002   0.00000   0.00018   0.00029  -0.00005
    X6       -3.28332  -0.00062   0.00000  -0.00100  -0.00044  -3.28377
    Y6       -0.00210  -0.00001   0.00000   0.00008   0.00024  -0.00186
    Z6       -0.00219  -0.00001   0.00000   0.00010   0.00031  -0.00189
         Item               Value     Threshold  Converged?
 Maximum Force            0.001011     0.000450     NO 
 RMS     Force            0.000297     0.000300     YES
 Maximum Displacement     0.003354     0.001800     NO 
 RMS     Displacement     0.000939     0.001200     YES
 Predicted change in Energy=-2.264992D-06
 GradGradGradGradGradGradGradGradGradGradGradGradGradGradGradGradGradGrad

 1\1\GINC-FS\Force\RM062X\6-311G(d,p)\C1H3Br1Cl1(1-)\XINYAN\22-Jan-2019
 \0\\# M062X/6-311G** force nosymm int=ultrafine\\Title\\-1,1\C,1.48421
 ,0.00716,0.00626\H,1.14208,-0.81623,0.62012\H,1.14945,0.95215,0.4156\H
 ,1.13945,-0.10942,-1.01305\Cl,3.31293,-0.00073,-0.00018\Br,-1.73746,-0
 .00111,-0.00116\\Version=ES64L-G16RevA.03\HF=-3074.3587027\RMSD=4.294e
 -09\RMSF=2.973e-04\Dipole=1.8400038,0.0061597,0.0054272\Quadrupole=-14
 .8017191,7.4002907,7.4014284,0.0040519,0.0000645,-0.0006077\PG=C01 [X(
 C1H3Br1Cl1)]\\@


 WE'RE IN THE POSITION OF A VISITOR FROM ANOTHER
 DIMENSION WHO COMES TO EARTH AND SEES A CHESS MATCH.
 ASSUMING HE KNOWS IT'S A GAME, HE'S GOT TWO PROBLEMS:
 FIRST, FIGURE OUT THE RULES, AND SECOND, FIGURE OUT HOW TO WIN.
 NINETY PERCENT OF SCIENCE (INCLUDING VIRTUALLY ALL OF CHEMISRY)
 IS IN THAT SECOND CATEGORY.  THEY'RE TRYING TO APPLY
 THE LAWS THAT ARE ALREADY KNOWN.

                     -- SHELDON GLASHOW, 1979
 Job cpu time:       0 days  0 hours  0 minutes 34.3 seconds.
 Elapsed time:       0 days  0 hours  0 minutes  7.4 seconds.
 File lengths (MBytes):  RWF=     10 Int=      0 D2E=      0 Chk=      2 Scr=      1
 Normal termination of Gaussian 16 at Tue Jan 22 16:57:57 2019.
