 Entering Gaussian System, Link 0=g16
 Input=CH3BrCl-61.gjf
 Output=CH3BrCl-61.log
 Initial command:
 /home/xinyan/g16/l1.exe "/scratch/tmp/Gau-15954.inp" -scrdir="/scratch/tmp/"
 Entering Link 1 = /home/xinyan/g16/l1.exe PID=     15955.
  
 Copyright (c) 1988,1990,1992,1993,1995,1998,2003,2009,2016,
            Gaussian, Inc.  All Rights Reserved.
  
 This is part of the Gaussian(R) 16 program.  It is based on
 the Gaussian(R) 09 system (copyright 2009, Gaussian, Inc.),
 the Gaussian(R) 03 system (copyright 2003, Gaussian, Inc.),
 the Gaussian(R) 98 system (copyright 1998, Gaussian, Inc.),
 the Gaussian(R) 94 system (copyright 1995, Gaussian, Inc.),
 the Gaussian 92(TM) system (copyright 1992, Gaussian, Inc.),
 the Gaussian 90(TM) system (copyright 1990, Gaussian, Inc.),
 the Gaussian 88(TM) system (copyright 1988, Gaussian, Inc.),
 the Gaussian 86(TM) system (copyright 1986, Carnegie Mellon
 University), and the Gaussian 82(TM) system (copyright 1983,
 Carnegie Mellon University). Gaussian is a federally registered
 trademark of Gaussian, Inc.
  
 This software contains proprietary and confidential information,
 including trade secrets, belonging to Gaussian, Inc.
  
 This software is provided under written license and may be
 used, copied, transmitted, or stored only in accord with that
 written license.
  
 The following legend is applicable only to US Government
 contracts under FAR:
  
                    RESTRICTED RIGHTS LEGEND
  
 Use, reproduction and disclosure by the US Government is
 subject to restrictions as set forth in subparagraphs (a)
 and (c) of the Commercial Computer Software - Restricted
 Rights clause in FAR 52.227-19.
  
 Gaussian, Inc.
 340 Quinnipiac St., Bldg. 40, Wallingford CT 06492
  
  
 ---------------------------------------------------------------
 Warning -- This program may not be used in any manner that
 competes with the business of Gaussian, Inc. or will provide
 assistance to any competitor of Gaussian, Inc.  The licensee
 of this program is prohibited from giving any competitor of
 Gaussian, Inc. access to this program.  By using this program,
 the user acknowledges that Gaussian, Inc. is engaged in the
 business of creating and licensing software in the field of
 computational chemistry and represents and warrants to the
 licensee that it is not a competitor of Gaussian, Inc. and that
 it will not use this program in any manner prohibited above.
 ---------------------------------------------------------------
  

 Cite this work as:
 Gaussian 16, Revision A.03,
 M. J. Frisch, G. W. Trucks, H. B. Schlegel, G. E. Scuseria, 
 M. A. Robb, J. R. Cheeseman, G. Scalmani, V. Barone, 
 G. A. Petersson, H. Nakatsuji, X. Li, M. Caricato, A. V. Marenich, 
 J. Bloino, B. G. Janesko, R. Gomperts, B. Mennucci, H. P. Hratchian, 
 J. V. Ortiz, A. F. Izmaylov, J. L. Sonnenberg, D. Williams-Young, 
 F. Ding, F. Lipparini, F. Egidi, J. Goings, B. Peng, A. Petrone, 
 T. Henderson, D. Ranasinghe, V. G. Zakrzewski, J. Gao, N. Rega, 
 G. Zheng, W. Liang, M. Hada, M. Ehara, K. Toyota, R. Fukuda, 
 J. Hasegawa, M. Ishida, T. Nakajima, Y. Honda, O. Kitao, H. Nakai, 
 T. Vreven, K. Throssell, J. A. Montgomery, Jr., J. E. Peralta, 
 F. Ogliaro, M. J. Bearpark, J. J. Heyd, E. N. Brothers, K. N. Kudin, 
 V. N. Staroverov, T. A. Keith, R. Kobayashi, J. Normand, 
 K. Raghavachari, A. P. Rendell, J. C. Burant, S. S. Iyengar, 
 J. Tomasi, M. Cossi, J. M. Millam, M. Klene, C. Adamo, R. Cammi, 
 J. W. Ochterski, R. L. Martin, K. Morokuma, O. Farkas, 
 J. B. Foresman, and D. J. Fox, Gaussian, Inc., Wallingford CT, 2016.
 
 ******************************************
 Gaussian 16:  ES64L-G16RevA.03 25-Dec-2016
                22-Jan-2019 
 ******************************************
 %nproc=5
 Will use up to    5 processors via shared memory.
 -------------------------------------------
 # M062X/6-311G** force nosymm int=ultrafine
 -------------------------------------------
 1/10=7,30=1,38=1/1,3;
 2/12=2,15=1,17=6,18=5,40=1/2;
 3/5=4,6=6,7=101,11=2,25=1,30=1,71=1,74=-55,75=-5/1,2,3;
 4//1;
 5/5=2,38=5/2;
 6/7=2,8=2,9=2,10=2,28=1/1;
 7/29=1,30=1/1,2,3,16;
 1/10=7,30=1/3;
 99//99;
 -----
 Title
 -----
 Symbolic Z-matrix:
 Charge = -1 Multiplicity = 1
 C                     1.46259   0.00613   0.00568 
 H                     1.12191  -0.82277   0.61315 
 H                     1.12866   0.94755   0.42269 
 H                     1.11896  -0.10243  -1.01502 
 Cl                    3.29232  -0.0009   -0.00054 
 Br                   -1.72426  -0.00082  -0.00089 
 

 GradGradGradGradGradGradGradGradGradGradGradGradGradGradGradGradGradGrad
 Berny optimization.
 Initialization pass.
 Trust Radius=3.00D-01 FncErr=1.00D-07 GrdErr=1.00D-07 EigMax=2.50D+02 EigMin=1.00D-04
 Number of steps in this run=      2 maximum allowed number of steps=      2.
 GradGradGradGradGradGradGradGradGradGradGradGradGradGradGradGradGradGrad

                          Input orientation:                          
 ---------------------------------------------------------------------
 Center     Atomic      Atomic             Coordinates (Angstroms)
 Number     Number       Type             X           Y           Z
 ---------------------------------------------------------------------
      1          6           0        1.462590    0.006130    0.005680
      2          1           0        1.121910   -0.822770    0.613150
      3          1           0        1.128660    0.947550    0.422690
      4          1           0        1.118960   -0.102430   -1.015020
      5         17           0        3.292320   -0.000900   -0.000540
      6         35           0       -1.724260   -0.000820   -0.000890
 ---------------------------------------------------------------------
                    Distance matrix (angstroms):
                    1          2          3          4          5
     1  C    0.000000
     2  H    1.082662   0.000000
     3  H    1.082441   1.780549   0.000000
     4  H    1.082449   1.780403   1.780326   0.000000
     5  Cl   1.829754   2.400576   2.400022   2.400619   0.000000
     6  Br   3.186864   3.025447   3.036112   3.020378   5.016580
                    6
     6  Br   0.000000
 Symmetry turned off by external request.
 Stoichiometry    CH3BrCl(1-)
 Framework group  C1[X(CH3BrCl)]
 Deg. of freedom    12
 Full point group                 C1      NOp   1
 Rotational constants (GHZ):         158.1341131           0.7838346           0.7838333
 Standard basis: 6-311G(d,p) (5D, 7F)
   106 basis functions,   195 primitive gaussians,   111 cartesian basis functions
    31 alpha electrons       31 beta electrons
       nuclear repulsion energy       166.4215172251 Hartrees.
 NAtoms=    6 NActive=    6 NUniq=    6 SFac= 1.00D+00 NAtFMM=   60 NAOKFM=F Big=F
 Integral buffers will be    131072 words long.
 Raffenetti 2 integral format.
 Two-electron integral symmetry is turned off.
 One-electron integrals computed using PRISM.
 NBasis=   106 RedAO= T EigKep=  1.12D-02  NBF=   106
 NBsUse=   106 1.00D-06 EigRej= -1.00D+00 NBFU=   106
 ExpMin= 1.03D-01 ExpMax= 4.40D+05 ExpMxC= 1.51D+04 IAcc=3 IRadAn=         5 AccDes= 0.00D+00
 Harris functional with IExCor= 1009 and IRadAn=       5 diagonalized for initial guess.
 HarFok:  IExCor= 1009 AccDes= 0.00D+00 IRadAn=         5 IDoV= 1 UseB2=F ITyADJ=14
 ICtDFT=  3500011 ScaDFX=  1.000000  1.000000  1.000000  1.000000
 FoFCou: FMM=F IPFlag=           0 FMFlag=      100000 FMFlg1=           0
         NFxFlg=           0 DoJE=T BraDBF=F KetDBF=T FulRan=T
         wScrn=  0.000000 ICntrl=       500 IOpCl=  0 I1Cent=   200000004 NGrid=           0
         NMat0=    1 NMatS0=      1 NMatT0=    0 NMatD0=    1 NMtDS0=    0 NMtDT0=    0
 Symmetry not used in FoFCou.
 Keep R1 ints in memory in canonical form, NReq=20756204.
 Requested convergence on RMS density matrix=1.00D-08 within 128 cycles.
 Requested convergence on MAX density matrix=1.00D-06.
 Requested convergence on             energy=1.00D-06.
 No special actions if energy rises.
 Integral accuracy reduced to 1.0D-05 until final iterations.
 Initial convergence to 1.0D-05 achieved.  Increase integral accuracy.
 SCF Done:  E(RM062X) =  -3074.35863524     A.U. after   13 cycles
            NFock= 13  Conv=0.45D-08     -V/T= 2.0014

 **********************************************************************

            Population analysis using the SCF density.

 **********************************************************************

 Alpha  occ. eigenvalues -- -485.03812-102.53418 -63.03021 -56.85609 -56.85603
 Alpha  occ. eigenvalues --  -56.85603 -10.44929  -9.67622  -8.71606  -7.40080
 Alpha  occ. eigenvalues --   -7.39503  -7.39503  -6.53760  -6.53728  -6.53728
 Alpha  occ. eigenvalues --   -2.56948  -2.56937  -2.56937  -2.56909  -2.56909
 Alpha  occ. eigenvalues --   -0.81289  -0.62809  -0.55103  -0.37355  -0.37343
 Alpha  occ. eigenvalues --   -0.33331  -0.23676  -0.23673  -0.09062  -0.08986
 Alpha  occ. eigenvalues --   -0.08985
 Alpha virt. eigenvalues --    0.19851   0.23407   0.28137   0.28173   0.42632
 Alpha virt. eigenvalues --    0.45997   0.46003   0.46684   0.46689   0.54414
 Alpha virt. eigenvalues --    0.56627   0.56648   0.58153   0.71131   0.74961
 Alpha virt. eigenvalues --    0.76119   0.76142   0.85962   0.95246   0.95250
 Alpha virt. eigenvalues --    0.96127   0.96163   0.99608   1.01078   1.01085
 Alpha virt. eigenvalues --    1.07792   1.07794   1.10679   1.24668   1.31992
 Alpha virt. eigenvalues --    1.32002   1.62804   1.65548   1.65568   1.86435
 Alpha virt. eigenvalues --    1.86447   1.87090   2.08805   2.17872   2.17878
 Alpha virt. eigenvalues --    2.24649   2.25898   2.25909   2.38775   2.38777
 Alpha virt. eigenvalues --    2.50970   2.53422   2.58923   2.58937   2.68833
 Alpha virt. eigenvalues --    2.68863   3.05254   3.31201   3.90500   3.90527
 Alpha virt. eigenvalues --    4.56806   4.56808   4.57455   4.57469   4.65921
 Alpha virt. eigenvalues --    6.78145   7.82071   7.82081   7.86201   9.85279
 Alpha virt. eigenvalues --   24.07371  25.68920  25.68928  26.22076  48.36960
 Alpha virt. eigenvalues --  215.90481 290.98584 290.98597 291.025861020.85128
          Condensed to atoms (all electrons):
               1          2          3          4          5          6
     1  C    5.060756   0.401468   0.401413   0.401521   0.148743  -0.019944
     2  H    0.401468   0.502362  -0.020673  -0.020571  -0.056707   0.005187
     3  H    0.401413  -0.020673   0.503260  -0.020642  -0.056720   0.005152
     4  H    0.401521  -0.020571  -0.020642   0.501878  -0.056701   0.005209
     5  Cl   0.148743  -0.056707  -0.056720  -0.056701  17.257691   0.005608
     6  Br  -0.019944   0.005187   0.005152   0.005209   0.005608  35.929372
 Mulliken charges:
               1
     1  C   -0.393956
     2  H    0.188935
     3  H    0.188210
     4  H    0.189307
     5  Cl  -0.241913
     6  Br  -0.930583
 Sum of Mulliken charges =  -1.00000
 Mulliken charges with hydrogens summed into heavy atoms:
               1
     1  C    0.172496
     5  Cl  -0.241913
     6  Br  -0.930583
 Electronic spatial extent (au):  <R**2>=           1218.7079
 Charge=             -1.0000 electrons
 Dipole moment (field-independent basis, Debye):
    X=              3.9634    Y=              0.0121    Z=              0.0114  Tot=              3.9634
 Quadrupole moment (field-independent basis, Debye-Ang):
   XX=            -72.8672   YY=            -43.1945   ZZ=            -43.1924
   XY=              0.0073   XZ=              0.0039   YZ=             -0.0009
 Traceless Quadrupole moment (field-independent basis, Debye-Ang):
   XX=            -19.7825   YY=              9.8902   ZZ=              9.8923
   XY=              0.0073   XZ=              0.0039   YZ=             -0.0009
 Octapole moment (field-independent basis, Debye-Ang**2):
  XXX=            -79.5100  YYY=              0.2538  ZZZ=             -0.8970  XYY=            -16.8355
  XXY=             -0.0064  XXZ=             -0.0095  XZZ=            -16.8471  YZZ=             -0.2981
  YYZ=              0.8503  XYZ=              0.0035
 Hexadecapole moment (field-independent basis, Debye-Ang**3):
 XXXX=          -1620.8473 YYYY=            -63.7227 ZZZZ=            -63.7457 XXXY=             -0.3109
 XXXZ=             -0.3563 YYYX=              0.1885 YYYZ=              0.0189 ZZZX=             -1.2267
 ZZZY=             -0.0140 XXYY=           -254.1435 XXZZ=           -254.1589 YYZZ=            -21.2347
 XXYZ=              0.0041 YYXZ=              0.9611 ZZXY=             -0.3933
 N-N= 1.664215172251D+02 E-N=-7.687627576504D+03  KE= 3.070203331224D+03
 Calling FoFJK, ICntrl=      2127 FMM=F ISym2X=0 I1Cent= 0 IOpClX= 0 NMat=1 NMatS=1 NMatT=0.
 -------------------------------------------------------------------
 Center     Atomic                   Forces (Hartrees/Bohr)
 Number     Number              X              Y              Z
 -------------------------------------------------------------------
      1        6           0.000126722   -0.000151510    0.000053621
      2        1           0.000018724    0.000155196   -0.000124104
      3        1          -0.000028203    0.000008935   -0.000016276
      4        1           0.000000529   -0.000005108    0.000092825
      5       17           0.001380628    0.000014140    0.000009763
      6       35          -0.001498400   -0.000021652   -0.000015829
 -------------------------------------------------------------------
 Cartesian Forces:  Max     0.001498400 RMS     0.000485562

 GradGradGradGradGradGradGradGradGradGradGradGradGradGradGradGradGradGrad
 Berny optimization.
 Search for a local minimum.
 Step number   1 out of a maximum of    2
 All quantities printed in internal units (Hartrees-Bohrs-Radians)
 Second derivative matrix not updated -- first step.
 The second derivative matrix:
                          X1        Y1        Z1        X2        Y2
           X1           0.54635
           Y1           0.00042   0.63973
           Z1           0.00047   0.00011   0.63975
           X2          -0.10261  -0.07842   0.05739   0.08596
           Y2          -0.06798  -0.23930   0.11621   0.07242   0.23350
           Z2           0.04977   0.11628  -0.16600  -0.05304  -0.12756
           X3          -0.10148   0.08760   0.03878   0.00823  -0.01116
           Y3           0.07578  -0.28572  -0.09078   0.00851  -0.01208
           Z3           0.03355  -0.09080  -0.12101  -0.01262   0.01833
           X4          -0.10320  -0.01040  -0.09735   0.00845   0.00671
           Y4          -0.00901  -0.08350  -0.02553   0.01487   0.01309
           Z4          -0.08449  -0.02559  -0.32151  -0.00443  -0.00365
           X5          -0.23906   0.00080   0.00071  -0.00002   0.00001
           Y5           0.00079  -0.03122   0.00000  -0.01738   0.00479
           Z5           0.00071   0.00000  -0.03123   0.01270  -0.00332
           X6           0.00000   0.00000   0.00000   0.00000   0.00000
           Y6           0.00000   0.00000   0.00000   0.00000   0.00000
           Z6           0.00000   0.00000   0.00000   0.00000   0.00000
                          Z2        X3        Y3        Z3        X4
           Z2           0.15294
           X3          -0.01062   0.08485
           Y3          -0.01171  -0.08071   0.28427
           Z3           0.01793  -0.03574   0.09958   0.10359
           X4           0.01390   0.00830  -0.00361   0.01480   0.08653
           Y4           0.02621  -0.01546   0.00762  -0.02958   0.00960
           Z4          -0.00747  -0.00115   0.00041  -0.00184   0.09004
           X5          -0.00000   0.00011   0.00003   0.00001  -0.00008
           Y5          -0.00322   0.01973   0.00590   0.00247  -0.00230
           Z5           0.00258   0.00873   0.00251   0.00133  -0.02138
           X6           0.00000   0.00000   0.00000   0.00000   0.00000
           Y6           0.00000   0.00000   0.00000   0.00000   0.00000
           Z6           0.00000   0.00000   0.00000   0.00000   0.00000
                          Y4        Z4        X5        Y5        Z5
           Y4           0.06247
           Z4           0.02810   0.32370
           X5           0.00000   0.00003   0.23906
           Y5           0.00032   0.00074  -0.00084   0.02021
           Z5           0.00081   0.00711  -0.00074   0.00000   0.02021
           X6           0.00000   0.00000   0.00000   0.00000   0.00000
           Y6           0.00000   0.00000   0.00000   0.00000   0.00000
           Z6           0.00000   0.00000   0.00000   0.00000   0.00000
                          X6        Y6        Z6
           X6           1.00000
           Y6           0.00000   1.00000
           Z6           0.00000   0.00000   1.00000
 ITU=  0
     Eigenvalues ---    0.02635   0.02635   0.07039   0.07041   0.09126
     Eigenvalues ---    0.13337   0.13340   0.28753   0.47518   0.76770
     Eigenvalues ---    0.92520   0.92561
 Angle between quadratic step and forces=  33.27 degrees.
 Linear search not attempted -- first point.
 B after Tr=     0.000290   -0.000051    0.000066
         Rot=    1.000000    0.000000   -0.000005   -0.000001 Ang=   0.00 deg.
 Variable       Old X    -DE/DX   Delta X   Delta X   Delta X     New X
                                 (Linear)    (Quad)   (Total)
    X1        2.76389   0.00013   0.00000   0.00089   0.00118   2.76507
    Y1        0.01158  -0.00015   0.00000  -0.00003  -0.00007   0.01151
    Z1        0.01073   0.00005   0.00000   0.00003   0.00007   0.01081
    X2        2.12010   0.00002   0.00000  -0.00154  -0.00123   2.11887
    Y2       -1.55481   0.00016   0.00000   0.00084   0.00079  -1.55402
    Z2        1.15869  -0.00012   0.00000  -0.00086  -0.00082   1.15787
    X3        2.13286  -0.00003   0.00000  -0.00141  -0.00112   2.13174
    Y3        1.79061   0.00001   0.00000  -0.00049  -0.00054   1.79007
    Z3        0.79877  -0.00002   0.00000  -0.00036  -0.00031   0.79846
    X4        2.11453   0.00000   0.00000  -0.00122  -0.00094   2.11358
    Y4       -0.19356  -0.00001   0.00000   0.00002  -0.00003  -0.19359
    Z4       -1.91811   0.00009   0.00000   0.00084   0.00089  -1.91722
    X5        6.22158   0.00138   0.00000   0.00396   0.00425   6.22584
    Y5       -0.00170   0.00001   0.00000  -0.00004  -0.00007  -0.00177
    Z5       -0.00102   0.00001   0.00000   0.00003   0.00004  -0.00098
    X6       -3.25838  -0.00150   0.00000  -0.00242  -0.00213  -3.26051
    Y6       -0.00155  -0.00002   0.00000  -0.00002  -0.00008  -0.00163
    Z6       -0.00168  -0.00002   0.00000   0.00003   0.00013  -0.00155
         Item               Value     Threshold  Converged?
 Maximum Force            0.001498     0.000450     NO 
 RMS     Force            0.000486     0.000300     NO 
 Maximum Displacement     0.004252     0.001800     NO 
 RMS     Displacement     0.001295     0.001200     NO 
 Predicted change in Energy=-5.423607D-06
 GradGradGradGradGradGradGradGradGradGradGradGradGradGradGradGradGradGrad

 1\1\GINC-FS\Force\RM062X\6-311G(d,p)\C1H3Br1Cl1(1-)\XINYAN\22-Jan-2019
 \0\\# M062X/6-311G** force nosymm int=ultrafine\\Title\\-1,1\C,1.46259
 ,0.00613,0.00568\H,1.12191,-0.82277,0.61315\H,1.12866,0.94755,0.42269\
 H,1.11896,-0.10243,-1.01502\Cl,3.29232,-0.0009,-0.00054\Br,-1.72426,-0
 .00082,-0.00089\\Version=ES64L-G16RevA.03\HF=-3074.3586352\RMSD=4.451e
 -09\RMSF=4.856e-04\Dipole=1.799892,0.0052238,0.0049195\Quadrupole=-14.
 7077757,7.3530951,7.3546807,0.0054552,0.0028795,-0.0006524\PG=C01 [X(C
 1H3Br1Cl1)]\\@


  THE LARGE PRINT GIVETH,
  AND THE SMALL PRINT TAKETH AWAY.

                     -- TOM WAITS
 Job cpu time:       0 days  0 hours  0 minutes 34.7 seconds.
 Elapsed time:       0 days  0 hours  0 minutes  7.5 seconds.
 File lengths (MBytes):  RWF=     10 Int=      0 D2E=      0 Chk=      2 Scr=      1
 Normal termination of Gaussian 16 at Tue Jan 22 16:57:42 2019.
