 Entering Gaussian System, Link 0=g16
 Input=CH3BrCl-32.gjf
 Output=CH3BrCl-32.log
 Initial command:
 /home/xinyan/g16/l1.exe "/scratch/tmp/Gau-13921.inp" -scrdir="/scratch/tmp/"
 Entering Link 1 = /home/xinyan/g16/l1.exe PID=     13922.
  
 Copyright (c) 1988,1990,1992,1993,1995,1998,2003,2009,2016,
            Gaussian, Inc.  All Rights Reserved.
  
 This is part of the Gaussian(R) 16 program.  It is based on
 the Gaussian(R) 09 system (copyright 2009, Gaussian, Inc.),
 the Gaussian(R) 03 system (copyright 2003, Gaussian, Inc.),
 the Gaussian(R) 98 system (copyright 1998, Gaussian, Inc.),
 the Gaussian(R) 94 system (copyright 1995, Gaussian, Inc.),
 the Gaussian 92(TM) system (copyright 1992, Gaussian, Inc.),
 the Gaussian 90(TM) system (copyright 1990, Gaussian, Inc.),
 the Gaussian 88(TM) system (copyright 1988, Gaussian, Inc.),
 the Gaussian 86(TM) system (copyright 1986, Carnegie Mellon
 University), and the Gaussian 82(TM) system (copyright 1983,
 Carnegie Mellon University). Gaussian is a federally registered
 trademark of Gaussian, Inc.
  
 This software contains proprietary and confidential information,
 including trade secrets, belonging to Gaussian, Inc.
  
 This software is provided under written license and may be
 used, copied, transmitted, or stored only in accord with that
 written license.
  
 The following legend is applicable only to US Government
 contracts under FAR:
  
                    RESTRICTED RIGHTS LEGEND
  
 Use, reproduction and disclosure by the US Government is
 subject to restrictions as set forth in subparagraphs (a)
 and (c) of the Commercial Computer Software - Restricted
 Rights clause in FAR 52.227-19.
  
 Gaussian, Inc.
 340 Quinnipiac St., Bldg. 40, Wallingford CT 06492
  
  
 ---------------------------------------------------------------
 Warning -- This program may not be used in any manner that
 competes with the business of Gaussian, Inc. or will provide
 assistance to any competitor of Gaussian, Inc.  The licensee
 of this program is prohibited from giving any competitor of
 Gaussian, Inc. access to this program.  By using this program,
 the user acknowledges that Gaussian, Inc. is engaged in the
 business of creating and licensing software in the field of
 computational chemistry and represents and warrants to the
 licensee that it is not a competitor of Gaussian, Inc. and that
 it will not use this program in any manner prohibited above.
 ---------------------------------------------------------------
  

 Cite this work as:
 Gaussian 16, Revision A.03,
 M. J. Frisch, G. W. Trucks, H. B. Schlegel, G. E. Scuseria, 
 M. A. Robb, J. R. Cheeseman, G. Scalmani, V. Barone, 
 G. A. Petersson, H. Nakatsuji, X. Li, M. Caricato, A. V. Marenich, 
 J. Bloino, B. G. Janesko, R. Gomperts, B. Mennucci, H. P. Hratchian, 
 J. V. Ortiz, A. F. Izmaylov, J. L. Sonnenberg, D. Williams-Young, 
 F. Ding, F. Lipparini, F. Egidi, J. Goings, B. Peng, A. Petrone, 
 T. Henderson, D. Ranasinghe, V. G. Zakrzewski, J. Gao, N. Rega, 
 G. Zheng, W. Liang, M. Hada, M. Ehara, K. Toyota, R. Fukuda, 
 J. Hasegawa, M. Ishida, T. Nakajima, Y. Honda, O. Kitao, H. Nakai, 
 T. Vreven, K. Throssell, J. A. Montgomery, Jr., J. E. Peralta, 
 F. Ogliaro, M. J. Bearpark, J. J. Heyd, E. N. Brothers, K. N. Kudin, 
 V. N. Staroverov, T. A. Keith, R. Kobayashi, J. Normand, 
 K. Raghavachari, A. P. Rendell, J. C. Burant, S. S. Iyengar, 
 J. Tomasi, M. Cossi, J. M. Millam, M. Klene, C. Adamo, R. Cammi, 
 J. W. Ochterski, R. L. Martin, K. Morokuma, O. Farkas, 
 J. B. Foresman, and D. J. Fox, Gaussian, Inc., Wallingford CT, 2016.
 
 ******************************************
 Gaussian 16:  ES64L-G16RevA.03 25-Dec-2016
                22-Jan-2019 
 ******************************************
 %nproc=5
 Will use up to    5 processors via shared memory.
 -------------------------------------------
 # M062X/6-311G** force nosymm int=ultrafine
 -------------------------------------------
 1/10=7,30=1,38=1/1,3;
 2/12=2,15=1,17=6,18=5,40=1/2;
 3/5=4,6=6,7=101,11=2,25=1,30=1,71=1,74=-55,75=-5/1,2,3;
 4//1;
 5/5=2,38=5/2;
 6/7=2,8=2,9=2,10=2,28=1/1;
 7/29=1,30=1/1,2,3,16;
 1/10=7,30=1/3;
 99//99;
 -----
 Title
 -----
 Symbolic Z-matrix:
 Charge = -1 Multiplicity = 1
 C                     0.9549    0.00016   0.00125 
 H                     0.87352  -0.87057   0.62467 
 H                     0.87332   0.97536   0.44371 
 H                     0.8731   -0.1043   -1.06445 
 Cl                    3.18344  -0.00004  -0.00026 
 Br                   -1.58924  -0.00002  -0.00013 
 

 GradGradGradGradGradGradGradGradGradGradGradGradGradGradGradGradGradGrad
 Berny optimization.
 Initialization pass.
 Trust Radius=3.00D-01 FncErr=1.00D-07 GrdErr=1.00D-07 EigMax=2.50D+02 EigMin=1.00D-04
 Number of steps in this run=      2 maximum allowed number of steps=      2.
 GradGradGradGradGradGradGradGradGradGradGradGradGradGradGradGradGradGrad

                          Input orientation:                          
 ---------------------------------------------------------------------
 Center     Atomic      Atomic             Coordinates (Angstroms)
 Number     Number       Type             X           Y           Z
 ---------------------------------------------------------------------
      1          6           0        0.954900    0.000160    0.001250
      2          1           0        0.873520   -0.870570    0.624670
      3          1           0        0.873320    0.975360    0.443710
      4          1           0        0.873100   -0.104300   -1.064450
      5         17           0        3.183440   -0.000040   -0.000260
      6         35           0       -1.589240   -0.000020   -0.000130
 ---------------------------------------------------------------------
                    Distance matrix (angstroms):
                    1          2          3          4          5
     1  C    0.000000
     2  H    1.073986   0.000000
     3  H    1.073984   1.854779   0.000000
     4  H    1.073927   1.854804   1.854781   0.000000
     5  Cl   2.228541   2.546388   2.546599   2.545789   0.000000
     6  Br   2.544140   2.685781   2.685621   2.684543   4.772680
                    6
     6  Br   0.000000
 Symmetry turned off by external request.
 This structure is nearly, but not quite of a higher symmetry.
 Consider Symm=Loose if the higher symmetry is desired.
 Stoichiometry    CH3BrCl(1-)
 Framework group  C1[X(CH3BrCl)]
 Deg. of freedom    12
 Full point group                 C1      NOp   1
 Rotational constants (GHZ):         145.7605901           0.8886742           0.8886740
 Standard basis: 6-311G(d,p) (5D, 7F)
   106 basis functions,   195 primitive gaussians,   111 cartesian basis functions
    31 alpha electrons       31 beta electrons
       nuclear repulsion energy       174.8872878568 Hartrees.
 NAtoms=    6 NActive=    6 NUniq=    6 SFac= 1.00D+00 NAtFMM=   60 NAOKFM=F Big=F
 Integral buffers will be    131072 words long.
 Raffenetti 2 integral format.
 Two-electron integral symmetry is turned off.
 One-electron integrals computed using PRISM.
 NBasis=   106 RedAO= T EigKep=  1.10D-02  NBF=   106
 NBsUse=   106 1.00D-06 EigRej= -1.00D+00 NBFU=   106
 ExpMin= 1.03D-01 ExpMax= 4.40D+05 ExpMxC= 1.51D+04 IAcc=3 IRadAn=         5 AccDes= 0.00D+00
 Harris functional with IExCor= 1009 and IRadAn=       5 diagonalized for initial guess.
 HarFok:  IExCor= 1009 AccDes= 0.00D+00 IRadAn=         5 IDoV= 1 UseB2=F ITyADJ=14
 ICtDFT=  3500011 ScaDFX=  1.000000  1.000000  1.000000  1.000000
 FoFCou: FMM=F IPFlag=           0 FMFlag=      100000 FMFlg1=           0
         NFxFlg=           0 DoJE=T BraDBF=F KetDBF=T FulRan=T
         wScrn=  0.000000 ICntrl=       500 IOpCl=  0 I1Cent=   200000004 NGrid=           0
         NMat0=    1 NMatS0=      1 NMatT0=    0 NMatD0=    1 NMtDS0=    0 NMtDT0=    0
 Symmetry not used in FoFCou.
 Keep R1 ints in memory in canonical form, NReq=20756192.
 Requested convergence on RMS density matrix=1.00D-08 within 128 cycles.
 Requested convergence on MAX density matrix=1.00D-06.
 Requested convergence on             energy=1.00D-06.
 No special actions if energy rises.
 Integral accuracy reduced to 1.0D-05 until final iterations.
 Initial convergence to 1.0D-05 achieved.  Increase integral accuracy.
 SCF Done:  E(RM062X) =  -3074.33905177     A.U. after   14 cycles
            NFock= 14  Conv=0.45D-08     -V/T= 2.0014

 **********************************************************************

            Population analysis using the SCF density.

 **********************************************************************

 Alpha  occ. eigenvalues -- -485.08899-102.45832 -63.08131 -56.90758 -56.90682
 Alpha  occ. eigenvalues --  -56.90682 -10.45983  -9.59939  -8.76752  -7.32253
 Alpha  occ. eigenvalues --   -7.31901  -7.31901  -6.59080  -6.58774  -6.58773
 Alpha  occ. eigenvalues --   -2.62249  -2.62152  -2.62152  -2.61884  -2.61884
 Alpha  occ. eigenvalues --   -0.71394  -0.64284  -0.58773  -0.37035  -0.37033
 Alpha  occ. eigenvalues --   -0.24274  -0.18482  -0.18481  -0.13357  -0.13356
 Alpha  occ. eigenvalues --   -0.12594
 Alpha virt. eigenvalues --    0.15557   0.22529   0.28786   0.28791   0.45696
 Alpha virt. eigenvalues --    0.47101   0.47101   0.48726   0.50084   0.50085
 Alpha virt. eigenvalues --    0.54039   0.54043   0.65832   0.67842   0.76675
 Alpha virt. eigenvalues --    0.76778   0.76783   0.90753   0.90755   0.90891
 Alpha virt. eigenvalues --    0.91218   0.91220   0.95944   1.13185   1.13189
 Alpha virt. eigenvalues --    1.14923   1.14924   1.21995   1.29297   1.29303
 Alpha virt. eigenvalues --    1.30828   1.58537   1.62925   1.62933   1.68399
 Alpha virt. eigenvalues --    1.98174   1.98177   1.98926   2.10180   2.10189
 Alpha virt. eigenvalues --    2.19214   2.19216   2.27865   2.36841   2.36843
 Alpha virt. eigenvalues --    2.47942   2.60115   2.60118   2.65037   2.78834
 Alpha virt. eigenvalues --    2.78834   3.01998   3.14686   3.89933   3.89940
 Alpha virt. eigenvalues --    4.52029   4.52030   4.53625   4.53628   4.70949
 Alpha virt. eigenvalues --    6.76239   7.77811   7.77814   7.85055   9.85445
 Alpha virt. eigenvalues --   24.08407  25.71806  25.71809  26.08002  48.34413
 Alpha virt. eigenvalues --  215.90215 290.93857 290.93858 291.016031020.83321
          Condensed to atoms (all electrons):
               1          2          3          4          5          6
     1  C    4.988754   0.413916   0.413910   0.414022   0.085416   0.032454
     2  H    0.413916   0.496172  -0.016538  -0.016500  -0.048769  -0.032269
     3  H    0.413910  -0.016538   0.496171  -0.016505  -0.048747  -0.032275
     4  H    0.414022  -0.016500  -0.016505   0.496118  -0.048873  -0.032391
     5  Cl   0.085416  -0.048769  -0.048747  -0.048873  17.597691   0.017207
     6  Br   0.032454  -0.032269  -0.032275  -0.032391   0.017207  35.756981
 Mulliken charges:
               1
     1  C   -0.348472
     2  H    0.203989
     3  H    0.203985
     4  H    0.204129
     5  Cl  -0.553924
     6  Br  -0.709707
 Sum of Mulliken charges =  -1.00000
 Mulliken charges with hydrogens summed into heavy atoms:
               1
     1  C    0.263631
     5  Cl  -0.553924
     6  Br  -0.709707
 Electronic spatial extent (au):  <R**2>=           1096.1131
 Charge=             -1.0000 electrons
 Dipole moment (field-independent basis, Debye):
    X=             -2.1306    Y=              0.0005    Z=              0.0029  Tot=              2.1306
 Quadrupole moment (field-independent basis, Debye-Ang):
   XX=            -82.2153   YY=            -43.0972   ZZ=            -43.0964
   XY=             -0.0001   XZ=              0.0030   YZ=             -0.0002
 Traceless Quadrupole moment (field-independent basis, Debye-Ang):
   XX=            -26.0790   YY=             13.0391   ZZ=             13.0399
   XY=             -0.0001   XZ=              0.0030   YZ=             -0.0002
 Octapole moment (field-independent basis, Debye-Ang**2):
  XXX=           -142.9526  YYY=              0.3320  ZZZ=             -1.1027  XYY=            -19.8533
  XXY=              0.0000  XXZ=             -0.0002  XZZ=            -19.8543  YZZ=             -0.3316
  YYZ=              1.0979  XYZ=              0.0000
 Hexadecapole moment (field-independent basis, Debye-Ang**3):
 XXXX=          -1636.2998 YYYY=            -63.6668 ZZZZ=            -63.6691 XXXY=             -0.0027
 XXXZ=             -0.0041 YYYX=              0.3006 YYYZ=              0.0004 ZZZX=             -0.9945
 ZZZY=             -0.0019 XXYY=           -236.9751 XXZZ=           -236.9754 YYZZ=            -21.2192
 XXYZ=             -0.0013 YYXZ=              0.9956 ZZXY=             -0.3004
 N-N= 1.748872878568D+02 E-N=-7.704051152439D+03  KE= 3.070150404556D+03
 Calling FoFJK, ICntrl=      2127 FMM=F ISym2X=0 I1Cent= 0 IOpClX= 0 NMat=1 NMatS=1 NMatT=0.
 -------------------------------------------------------------------
 Center     Atomic                   Forces (Hartrees/Bohr)
 Number     Number              X              Y              Z
 -------------------------------------------------------------------
      1        6           0.014354581   -0.000003989   -0.000017136
      2        1           0.000090587    0.000323326   -0.000229806
      3        1           0.000094030   -0.000356150   -0.000164626
      4        1           0.000093297    0.000039009    0.000396806
      5       17          -0.007147719   -0.000000687    0.000019232
      6       35          -0.007484776   -0.000001509   -0.000004470
 -------------------------------------------------------------------
 Cartesian Forces:  Max     0.014354581 RMS     0.004174409

 GradGradGradGradGradGradGradGradGradGradGradGradGradGradGradGradGradGrad
 Berny optimization.
 Search for a local minimum.
 Step number   1 out of a maximum of    2
 All quantities printed in internal units (Hartrees-Bohrs-Radians)
 Second derivative matrix not updated -- first step.
 The second derivative matrix:
                          X1        Y1        Z1        X2        Y2
           X1           0.30286
           Y1          -0.00006   0.73612
           Z1           0.00004   0.00001   0.73618
           X2          -0.07123  -0.01199   0.00860   0.05134
           Y2          -0.01829  -0.28075   0.11934   0.01951   0.26753
           Z2           0.01311   0.11933  -0.19950  -0.01399  -0.13681
           X3          -0.07124   0.01348   0.00612   0.00994  -0.00352
           Y3           0.02054  -0.32315  -0.09486   0.00275  -0.00957
           Z3           0.00932  -0.09486  -0.15710  -0.00423   0.02044
           X4          -0.07124  -0.00144  -0.01480   0.00995   0.00229
           Y4          -0.00220  -0.11648  -0.02448   0.00490   0.02182
           Z4          -0.02252  -0.02448  -0.36385  -0.00124  -0.00232
           X5          -0.08915   0.00001   0.00005   0.00001  -0.00000
           Y5           0.00001  -0.01575  -0.00000  -0.01518   0.00096
           Z5           0.00005  -0.00000  -0.01574   0.01087  -0.00066
           X6           0.00000   0.00000   0.00000   0.00000   0.00000
           Y6           0.00000   0.00000   0.00000   0.00000   0.00000
           Z6           0.00000   0.00000   0.00000   0.00000   0.00000
                          Z2        X3        Y3        Z3        X4
           Z2           0.17440
           X3          -0.00362   0.05135
           Y3          -0.01300  -0.02192   0.31614
           Z3           0.02799  -0.00995   0.10875   0.12579
           X4           0.00450   0.00995  -0.00137   0.00486   0.05136
           Y4           0.03112  -0.00505   0.01538  -0.03484   0.00235
           Z4          -0.00340  -0.00027  -0.00140   0.00304   0.02403
           X5           0.00000   0.00001   0.00000   0.00000  -0.00001
           Y5          -0.00065   0.01700   0.00119   0.00051  -0.00182
           Z5           0.00050   0.00771   0.00052   0.00027  -0.01858
           X6           0.00000   0.00000   0.00000   0.00000   0.00000
           Y6           0.00000   0.00000   0.00000   0.00000   0.00000
           Z6           0.00000   0.00000   0.00000   0.00000   0.00000
                          Y4        Z4        X5        Y5        Z5
           Y4           0.07921
           Z4           0.02807   0.36279
           X5           0.00000   0.00000   0.08915
           Y5           0.00005   0.00013  -0.00001   0.01355
           Z5           0.00014   0.00141  -0.00005  -0.00000   0.01355
           X6           0.00000   0.00000   0.00000   0.00000   0.00000
           Y6           0.00000   0.00000   0.00000   0.00000   0.00000
           Z6           0.00000   0.00000   0.00000   0.00000   0.00000
                          X6        Y6        Z6
           X6           1.00000
           Y6           0.00000   1.00000
           Z6           0.00000   0.00000   1.00000
 ITU=  0
     Eigenvalues ---    0.03738   0.03738   0.05604   0.05605   0.05674
     Eigenvalues ---    0.16335   0.16337   0.32866   0.40141   0.45682
     Eigenvalues ---    1.03199   1.03210
 Angle between quadratic step and forces=  49.99 degrees.
 Linear search not attempted -- first point.
 B after Tr=    -0.024146   -0.000018    0.000045
         Rot=    1.000000    0.000000    0.000000   -0.000002 Ang=   0.00 deg.
 Variable       Old X    -DE/DX   Delta X   Delta X   Delta X     New X
                                 (Linear)    (Quad)   (Total)
    X1        1.80450   0.01435   0.00000   0.06080   0.03665   1.84115
    Y1        0.00030  -0.00000   0.00000   0.00002   0.00001   0.00031
    Z1        0.00236  -0.00002   0.00000  -0.00010  -0.00006   0.00231
    X2        1.65071   0.00009   0.00000   0.05052   0.02638   1.67709
    Y2       -1.64514   0.00032   0.00000   0.00142   0.00140  -1.64374
    Z2        1.18046  -0.00023   0.00000  -0.00110  -0.00105   1.17941
    X3        1.65034   0.00009   0.00000   0.05062   0.02647   1.67680
    Y3        1.84316  -0.00036   0.00000  -0.00153  -0.00154   1.84162
    Z3        0.83849  -0.00016   0.00000  -0.00081  -0.00076   0.83773
    X4        1.64992   0.00009   0.00000   0.05059   0.02645   1.67637
    Y4       -0.19710   0.00004   0.00000   0.00019   0.00018  -0.19692
    Z4       -2.01152   0.00040   0.00000   0.00161   0.00166  -2.00986
    X5        6.01583  -0.00715   0.00000  -0.05554  -0.07969   5.93614
    Y5       -0.00008  -0.00000   0.00000  -0.00001  -0.00001  -0.00008
    Z5       -0.00049   0.00002   0.00000   0.00009   0.00014  -0.00035
    X6       -3.00323  -0.00748   0.00000  -0.01211  -0.03626  -3.03949
    Y6       -0.00004  -0.00000   0.00000  -0.00002  -0.00004  -0.00008
    Z6       -0.00025  -0.00000   0.00000   0.00003   0.00007  -0.00017
         Item               Value     Threshold  Converged?
 Maximum Force            0.014355     0.000450     NO 
 RMS     Force            0.004174     0.000300     NO 
 Maximum Displacement     0.079690     0.001800     NO 
 RMS     Displacement     0.024847     0.001200     NO 
 Predicted change in Energy=-1.042713D-04
 GradGradGradGradGradGradGradGradGradGradGradGradGradGradGradGradGradGrad

 1\1\GINC-FS\Force\RM062X\6-311G(d,p)\C1H3Br1Cl1(1-)\XINYAN\22-Jan-2019
 \0\\# M062X/6-311G** force nosymm int=ultrafine\\Title\\-1,1\C,0.9549,
 0.00016,0.00125\H,0.87352,-0.87057,0.62467\H,0.87332,0.97536,0.44371\H
 ,0.8731,-0.1043,-1.06445\Cl,3.18344,-0.00004,-0.00026\Br,-1.58924,-0.0
 0002,-0.00013\\Version=ES64L-G16RevA.03\HF=-3074.3390518\RMSD=4.501e-0
 9\RMSF=4.174e-03\Dipole=-0.6261913,0.0002007,0.0012245\Quadrupole=-19.
 3891127,9.6942526,9.6948601,-0.0000879,0.0022378,-0.0001458\PG=C01 [X(
 C1H3Br1Cl1)]\\@


 I (ERNEST RUTHERFORD) CAME INTO THE ROOM, WHICH WAS HALF DARK, AND PRESENTLY
 SPOTTED LORD KELVIN IN THE AUDIENCE AND REALIZED I WAS IN TROUBLE AT
 THE LAST PART OF MY SPEECH DEALING THE AGE OF THE EARTH, WHERE MY VIEWS
 CONFLICTED WITH HIS.  TO MY RELIEF KELVIN FELL FAST ASLEEP, BUT AS I CAME
 TO THE IMPORTANT POINT, I SAW THE OLD BIRD SIT UP AND COCK A BALEFUL GLANCE
 AT ME! THEN A SUDDEN INSPIRATION CAME AND I SAID LORD KELVIN HAD LIMITED
 THE AGE OF THE EARTH PROVIDED NO NEW SOURCE WAS DISCOVERED. THAT
 PROPHETIC UTTERANCE REFERS TO WHAT WE ARE NOW CONSIDERING TONIGHT, RADIUM!
 BEHOLD!  THE OLD BOY BEAMED UPON ME.
 Job cpu time:       0 days  0 hours  0 minutes 37.7 seconds.
 Elapsed time:       0 days  0 hours  0 minutes  8.2 seconds.
 File lengths (MBytes):  RWF=     10 Int=      0 D2E=      0 Chk=      2 Scr=      1
 Normal termination of Gaussian 16 at Tue Jan 22 16:53:47 2019.
