 Entering Gaussian System, Link 0=g16
 Input=CH3BrCl-26.gjf
 Output=CH3BrCl-26.log
 Initial command:
 /home/xinyan/g16/l1.exe "/scratch/tmp/Gau-13485.inp" -scrdir="/scratch/tmp/"
 Entering Link 1 = /home/xinyan/g16/l1.exe PID=     13486.
  
 Copyright (c) 1988,1990,1992,1993,1995,1998,2003,2009,2016,
            Gaussian, Inc.  All Rights Reserved.
  
 This is part of the Gaussian(R) 16 program.  It is based on
 the Gaussian(R) 09 system (copyright 2009, Gaussian, Inc.),
 the Gaussian(R) 03 system (copyright 2003, Gaussian, Inc.),
 the Gaussian(R) 98 system (copyright 1998, Gaussian, Inc.),
 the Gaussian(R) 94 system (copyright 1995, Gaussian, Inc.),
 the Gaussian 92(TM) system (copyright 1992, Gaussian, Inc.),
 the Gaussian 90(TM) system (copyright 1990, Gaussian, Inc.),
 the Gaussian 88(TM) system (copyright 1988, Gaussian, Inc.),
 the Gaussian 86(TM) system (copyright 1986, Carnegie Mellon
 University), and the Gaussian 82(TM) system (copyright 1983,
 Carnegie Mellon University). Gaussian is a federally registered
 trademark of Gaussian, Inc.
  
 This software contains proprietary and confidential information,
 including trade secrets, belonging to Gaussian, Inc.
  
 This software is provided under written license and may be
 used, copied, transmitted, or stored only in accord with that
 written license.
  
 The following legend is applicable only to US Government
 contracts under FAR:
  
                    RESTRICTED RIGHTS LEGEND
  
 Use, reproduction and disclosure by the US Government is
 subject to restrictions as set forth in subparagraphs (a)
 and (c) of the Commercial Computer Software - Restricted
 Rights clause in FAR 52.227-19.
  
 Gaussian, Inc.
 340 Quinnipiac St., Bldg. 40, Wallingford CT 06492
  
  
 ---------------------------------------------------------------
 Warning -- This program may not be used in any manner that
 competes with the business of Gaussian, Inc. or will provide
 assistance to any competitor of Gaussian, Inc.  The licensee
 of this program is prohibited from giving any competitor of
 Gaussian, Inc. access to this program.  By using this program,
 the user acknowledges that Gaussian, Inc. is engaged in the
 business of creating and licensing software in the field of
 computational chemistry and represents and warrants to the
 licensee that it is not a competitor of Gaussian, Inc. and that
 it will not use this program in any manner prohibited above.
 ---------------------------------------------------------------
  

 Cite this work as:
 Gaussian 16, Revision A.03,
 M. J. Frisch, G. W. Trucks, H. B. Schlegel, G. E. Scuseria, 
 M. A. Robb, J. R. Cheeseman, G. Scalmani, V. Barone, 
 G. A. Petersson, H. Nakatsuji, X. Li, M. Caricato, A. V. Marenich, 
 J. Bloino, B. G. Janesko, R. Gomperts, B. Mennucci, H. P. Hratchian, 
 J. V. Ortiz, A. F. Izmaylov, J. L. Sonnenberg, D. Williams-Young, 
 F. Ding, F. Lipparini, F. Egidi, J. Goings, B. Peng, A. Petrone, 
 T. Henderson, D. Ranasinghe, V. G. Zakrzewski, J. Gao, N. Rega, 
 G. Zheng, W. Liang, M. Hada, M. Ehara, K. Toyota, R. Fukuda, 
 J. Hasegawa, M. Ishida, T. Nakajima, Y. Honda, O. Kitao, H. Nakai, 
 T. Vreven, K. Throssell, J. A. Montgomery, Jr., J. E. Peralta, 
 F. Ogliaro, M. J. Bearpark, J. J. Heyd, E. N. Brothers, K. N. Kudin, 
 V. N. Staroverov, T. A. Keith, R. Kobayashi, J. Normand, 
 K. Raghavachari, A. P. Rendell, J. C. Burant, S. S. Iyengar, 
 J. Tomasi, M. Cossi, J. M. Millam, M. Klene, C. Adamo, R. Cammi, 
 J. W. Ochterski, R. L. Martin, K. Morokuma, O. Farkas, 
 J. B. Foresman, and D. J. Fox, Gaussian, Inc., Wallingford CT, 2016.
 
 ******************************************
 Gaussian 16:  ES64L-G16RevA.03 25-Dec-2016
                22-Jan-2019 
 ******************************************
 %nproc=5
 Will use up to    5 processors via shared memory.
 -------------------------------------------
 # M062X/6-311G** force nosymm int=ultrafine
 -------------------------------------------
 1/10=7,30=1,38=1/1,3;
 2/12=2,15=1,17=6,18=5,40=1/2;
 3/5=4,6=6,7=101,11=2,25=1,30=1,71=1,74=-55,75=-5/1,2,3;
 4//1;
 5/5=2,38=5/2;
 6/7=2,8=2,9=2,10=2,28=1/1;
 7/29=1,30=1/1,2,3,16;
 1/10=7,30=1/3;
 99//99;
 -----
 Title
 -----
 Symbolic Z-matrix:
 Charge = -1 Multiplicity = 1
 C                     0.39409   0.00071   0.0006 
 H                     0.71882  -0.8342    0.60654 
 H                     0.71981   0.94338   0.42205 
 H                     0.71564  -0.10537  -1.0243 
 Cl                    3.40757  -0.00009  -0.00047 
 Br                   -1.59734  -0.00012   0.00006 
 

 GradGradGradGradGradGradGradGradGradGradGradGradGradGradGradGradGradGrad
 Berny optimization.
 Initialization pass.
 Trust Radius=3.00D-01 FncErr=1.00D-07 GrdErr=1.00D-07 EigMax=2.50D+02 EigMin=1.00D-04
 Number of steps in this run=      2 maximum allowed number of steps=      2.
 GradGradGradGradGradGradGradGradGradGradGradGradGradGradGradGradGradGrad

                          Input orientation:                          
 ---------------------------------------------------------------------
 Center     Atomic      Atomic             Coordinates (Angstroms)
 Number     Number       Type             X           Y           Z
 ---------------------------------------------------------------------
      1          6           0        0.394090    0.000710    0.000600
      2          1           0        0.718820   -0.834200    0.606540
      3          1           0        0.719810    0.943380    0.422050
      4          1           0        0.715640   -0.105370   -1.024300
      5         17           0        3.407570   -0.000090   -0.000470
      6         35           0       -1.597340   -0.000120    0.000060
 ---------------------------------------------------------------------
                    Distance matrix (angstroms):
                    1          2          3          4          5
     1  C    0.000000
     2  H    1.081521   0.000000
     3  H    1.082747   1.787128   0.000000
     4  H    1.079383   1.786293   1.786567   0.000000
     5  Cl   3.013480   2.879857   2.879707   2.881978   0.000000
     6  Br   1.991430   2.535371   2.537213   2.531851   5.004910
                    6
     6  Br   0.000000
 Symmetry turned off by external request.
 Stoichiometry    CH3BrCl(1-)
 Framework group  C1[X(CH3BrCl)]
 Deg. of freedom    12
 Full point group                 C1      NOp   1
 Rotational constants (GHZ):         157.0885834           0.8251999           0.8251975
 Standard basis: 6-311G(d,p) (5D, 7F)
   106 basis functions,   195 primitive gaussians,   111 cartesian basis functions
    31 alpha electrons       31 beta electrons
       nuclear repulsion energy       177.6122242211 Hartrees.
 NAtoms=    6 NActive=    6 NUniq=    6 SFac= 1.00D+00 NAtFMM=   60 NAOKFM=F Big=F
 Integral buffers will be    131072 words long.
 Raffenetti 2 integral format.
 Two-electron integral symmetry is turned off.
 One-electron integrals computed using PRISM.
 NBasis=   106 RedAO= T EigKep=  9.97D-03  NBF=   106
 NBsUse=   106 1.00D-06 EigRej= -1.00D+00 NBFU=   106
 ExpMin= 1.03D-01 ExpMax= 4.40D+05 ExpMxC= 1.51D+04 IAcc=3 IRadAn=         5 AccDes= 0.00D+00
 Harris functional with IExCor= 1009 and IRadAn=       5 diagonalized for initial guess.
 HarFok:  IExCor= 1009 AccDes= 0.00D+00 IRadAn=         5 IDoV= 1 UseB2=F ITyADJ=14
 ICtDFT=  3500011 ScaDFX=  1.000000  1.000000  1.000000  1.000000
 FoFCou: FMM=F IPFlag=           0 FMFlag=      100000 FMFlg1=           0
         NFxFlg=           0 DoJE=T BraDBF=F KetDBF=T FulRan=T
         wScrn=  0.000000 ICntrl=       500 IOpCl=  0 I1Cent=   200000004 NGrid=           0
         NMat0=    1 NMatS0=      1 NMatT0=    0 NMatD0=    1 NMtDS0=    0 NMtDT0=    0
 Symmetry not used in FoFCou.
 Keep R1 ints in memory in canonical form, NReq=20756204.
 Requested convergence on RMS density matrix=1.00D-08 within 128 cycles.
 Requested convergence on MAX density matrix=1.00D-06.
 Requested convergence on             energy=1.00D-06.
 No special actions if energy rises.
 Integral accuracy reduced to 1.0D-05 until final iterations.
 Initial convergence to 1.0D-05 achieved.  Increase integral accuracy.
 SCF Done:  E(RM062X) =  -3074.35170129     A.U. after   13 cycles
            NFock= 13  Conv=0.35D-08     -V/T= 2.0014

 **********************************************************************

            Population analysis using the SCF density.

 **********************************************************************

 Alpha  occ. eigenvalues -- -485.19177-102.36180 -63.18400 -57.01118 -57.00902
 Alpha  occ. eigenvalues --  -57.00902 -10.44586  -9.50339  -8.87094  -7.22456
 Alpha  occ. eigenvalues --   -7.22433  -7.22433  -6.69784  -6.68922  -6.68922
 Alpha  occ. eigenvalues --   -2.72937  -2.72641  -2.72641  -2.71877  -2.71877
 Alpha  occ. eigenvalues --   -0.75638  -0.61920  -0.58809  -0.36514  -0.36431
 Alpha  occ. eigenvalues --   -0.30062  -0.21028  -0.21023  -0.10396  -0.10395
 Alpha  occ. eigenvalues --   -0.10383
 Alpha virt. eigenvalues --    0.17048   0.23761   0.28516   0.28541   0.43600
 Alpha virt. eigenvalues --    0.45502   0.45529   0.46705   0.46707   0.55590
 Alpha virt. eigenvalues --    0.56809   0.56814   0.57090   0.66824   0.75915
 Alpha virt. eigenvalues --    0.76003   0.77386   0.81411   0.81418   0.85182
 Alpha virt. eigenvalues --    0.85208   0.91933   1.01569   1.09539   1.23433
 Alpha virt. eigenvalues --    1.23435   1.23822   1.23824   1.29052   1.29065
 Alpha virt. eigenvalues --    1.30517   1.62632   1.65536   1.65580   1.83210
 Alpha virt. eigenvalues --    1.85325   1.85332   2.08289   2.09176   2.09218
 Alpha virt. eigenvalues --    2.26919   2.30732   2.30742   2.43597   2.43599
 Alpha virt. eigenvalues --    2.48352   2.54801   2.59622   2.59768   2.69460
 Alpha virt. eigenvalues --    2.69698   3.07287   3.17938   3.89410   3.89887
 Alpha virt. eigenvalues --    4.42491   4.42495   4.52519   4.52527   4.80637
 Alpha virt. eigenvalues --    6.70387   7.69744   7.69746   7.79950   9.87970
 Alpha virt. eigenvalues --   24.08870  25.78820  25.78823  25.93104  48.27046
 Alpha virt. eigenvalues --  215.91222 290.84423 290.84427 290.975901020.76526
          Condensed to atoms (all electrons):
               1          2          3          4          5          6
     1  C    5.031390   0.406633   0.406431   0.406964  -0.011735   0.157617
     2  H    0.406633   0.487686  -0.018249  -0.018039  -0.003072  -0.048768
     3  H    0.406431  -0.018249   0.487935  -0.018122  -0.003064  -0.048629
     4  H    0.406964  -0.018039  -0.018122   0.487477  -0.003080  -0.049047
     5  Cl  -0.011735  -0.003072  -0.003064  -0.003080  17.948780   0.006432
     6  Br   0.157617  -0.048768  -0.048629  -0.049047   0.006432  35.232191
 Mulliken charges:
               1
     1  C   -0.397300
     2  H    0.193809
     3  H    0.193698
     4  H    0.193848
     5  Cl  -0.934260
     6  Br  -0.249795
 Sum of Mulliken charges =  -1.00000
 Mulliken charges with hydrogens summed into heavy atoms:
               1
     1  C    0.184055
     5  Cl  -0.934260
     6  Br  -0.249795
 Electronic spatial extent (au):  <R**2>=           1181.9894
 Charge=             -1.0000 electrons
 Dipole moment (field-independent basis, Debye):
    X=            -11.8824    Y=              0.0015    Z=              0.0029  Tot=             11.8824
 Quadrupole moment (field-independent basis, Debye-Ang):
   XX=            -99.4717   YY=            -43.0185   ZZ=            -43.0160
   XY=              0.0049   XZ=              0.0147   YZ=             -0.0005
 Traceless Quadrupole moment (field-independent basis, Debye-Ang):
   XX=            -37.6362   YY=             18.8169   ZZ=             18.8194
   XY=              0.0049   XZ=              0.0147   YZ=             -0.0005
 Octapole moment (field-independent basis, Debye-Ang**2):
  XXX=           -266.8368  YYY=              0.2849  ZZZ=             -0.9121  XYY=            -27.3402
  XXY=             -0.0009  XXZ=              0.0240  XZZ=            -27.3450  YZZ=             -0.2948
  YYZ=              0.9106  XYZ=             -0.0002
 Hexadecapole moment (field-independent basis, Debye-Ang**3):
 XXXX=          -2124.9579 YYYY=            -62.9913 ZZZZ=            -62.9704 XXXY=              0.0177
 XXXZ=              0.1717 YYYX=              0.2035 YYYZ=              0.0028 ZZZX=             -0.5741
 ZZZY=             -0.0044 XXYY=           -265.8266 XXZZ=           -265.8336 YYZZ=            -20.9905
 XXYZ=             -0.0012 YYXZ=              0.6749 ZZXY=             -0.2102
 N-N= 1.776122242211D+02 E-N=-7.707587235180D+03  KE= 3.070196076964D+03
 Calling FoFJK, ICntrl=      2127 FMM=F ISym2X=0 I1Cent= 0 IOpClX= 0 NMat=1 NMatS=1 NMatT=0.
 -------------------------------------------------------------------
 Center     Atomic                   Forces (Hartrees/Bohr)
 Number     Number              X              Y              Z
 -------------------------------------------------------------------
      1        6          -0.000133953    0.000850194    0.001674362
      2        1           0.000004282    0.000074506   -0.000193694
      3        1          -0.000351491   -0.000812579   -0.000441997
      4        1           0.000651092   -0.000167017   -0.001141995
      5       17           0.001396171    0.000007569   -0.000008455
      6       35          -0.001566100    0.000047327    0.000111778
 -------------------------------------------------------------------
 Cartesian Forces:  Max     0.001674362 RMS     0.000772418

 GradGradGradGradGradGradGradGradGradGradGradGradGradGradGradGradGradGrad
 Berny optimization.
 Search for a local minimum.
 Step number   1 out of a maximum of    2
 All quantities printed in internal units (Hartrees-Bohrs-Radians)
 Second derivative matrix not updated -- first step.
 The second derivative matrix:
                          X1        Y1        Z1        X2        Y2
           X1           0.44010
           Y1          -0.00013   0.64269
           Z1          -0.00006  -0.00031   0.64633
           X2          -0.09866   0.07697  -0.05587   0.08259
           Y2           0.06611  -0.24371   0.11648  -0.07016   0.23765
           Z2          -0.04795   0.11639  -0.16767   0.05099  -0.12838
           X3          -0.09850  -0.08660  -0.03873   0.00804   0.01077
           Y3          -0.07434  -0.28616  -0.09080  -0.00838  -0.01191
           Z3          -0.03323  -0.09073  -0.12361   0.01254   0.01832
           X4          -0.09868   0.00981   0.09470   0.00804  -0.00672
           Y4           0.00843  -0.08610  -0.02537  -0.01452   0.01380
           Z4           0.08133  -0.02534  -0.32835   0.00403  -0.00354
           X5           0.00000   0.00000   0.00000   0.00000   0.00000
           Y5           0.00000   0.00000   0.00000   0.00000   0.00000
           Z5           0.00000   0.00000   0.00000   0.00000   0.00000
           X6          -0.14425  -0.00005  -0.00003  -0.00000  -0.00000
           Y6          -0.00007  -0.02672   0.00000   0.01610   0.00417
           Z6          -0.00009   0.00000  -0.02670  -0.01168  -0.00289
                          Z2        X3        Y3        Z3        X4
           Z2           0.15389
           X3           0.01053   0.08243
           Y3          -0.01192   0.07895   0.28460
           Z3           0.01853   0.03534   0.10013   0.10538
           X4          -0.01357   0.00803   0.00378  -0.01465   0.08262
           Y4           0.02680   0.01501   0.00822  -0.02998  -0.00892
           Z4          -0.00703   0.00097   0.00033  -0.00149  -0.08632
           X5           0.00000   0.00000   0.00000   0.00000   0.00000
           Y5           0.00000   0.00000   0.00000   0.00000   0.00000
           Z5           0.00000   0.00000   0.00000   0.00000   0.00000
           X6           0.00000   0.00001  -0.00000  -0.00000  -0.00001
           Y6          -0.00288  -0.01813   0.00525   0.00226   0.00206
           Z6           0.00228  -0.00811   0.00226   0.00120   0.01984
                          Y4        Z4        X5        Y5        Z5
           Y4           0.06383
           Z4           0.02793   0.33072
           X5           0.00000   0.00000   1.00000
           Y5           0.00000   0.00000   0.00000   1.00000
           Z5           0.00000   0.00000   0.00000   0.00000   1.00000
           X6          -0.00000  -0.00000   0.00000   0.00000   0.00000
           Y6           0.00026   0.00062   0.00000   0.00000   0.00000
           Z6           0.00063   0.00616   0.00000   0.00000   0.00000
                          X6        Y6        Z6
           X6           0.14425
           Y6           0.00005   0.01704
           Z6           0.00003  -0.00000   0.01705
 ITU=  0
     Eigenvalues ---    0.05089   0.05096   0.06561   0.07969   0.07977
     Eigenvalues ---    0.13736   0.13775   0.25999   0.63409   0.73880
     Eigenvalues ---    0.94153   0.94759
 Angle between quadratic step and forces=  58.91 degrees.
 Linear search not attempted -- first point.
 B after Tr=    -0.002080    0.000348    0.000673
         Rot=    1.000000    0.000000   -0.000104    0.000050 Ang=   0.01 deg.
 Variable       Old X    -DE/DX   Delta X   Delta X   Delta X     New X
                                 (Linear)    (Quad)   (Total)
    X1        0.74472  -0.00013   0.00000   0.00160  -0.00048   0.74424
    Y1        0.00134   0.00085   0.00000   0.00009   0.00036   0.00170
    Z1        0.00113   0.00167   0.00000   0.00013   0.00065   0.00179
    X2        1.35837   0.00000   0.00000   0.00352   0.00152   1.35989
    Y2       -1.57641   0.00007   0.00000   0.00079   0.00101  -1.57540
    Z2        1.14619  -0.00019   0.00000  -0.00056  -0.00017   1.14603
    X3        1.36024  -0.00035   0.00000   0.00069  -0.00105   1.35920
    Y3        1.78273  -0.00081   0.00000  -0.00219  -0.00198   1.78075
    Z3        0.79756  -0.00044   0.00000  -0.00091  -0.00052   0.79704
    X4        1.35236   0.00065   0.00000   0.00898   0.00648   1.35885
    Y4       -0.19912  -0.00017   0.00000  -0.00020   0.00002  -0.19910
    Z4       -1.93565  -0.00114   0.00000  -0.00141  -0.00102  -1.93667
    X5        6.43937   0.00140   0.00000   0.00190  -0.00018   6.43920
    Y5       -0.00017   0.00001   0.00000   0.00000  -0.00029  -0.00046
    Z5       -0.00089  -0.00001   0.00000  -0.00004  -0.00070  -0.00159
    X6       -3.01854  -0.00157   0.00000  -0.00422  -0.00630  -3.02483
    Y6       -0.00023   0.00005   0.00000   0.00023   0.00088   0.00065
    Z6        0.00011   0.00011   0.00000   0.00046   0.00176   0.00187
         Item               Value     Threshold  Converged?
 Maximum Force            0.001674     0.000450     NO 
 RMS     Force            0.000772     0.000300     NO 
 Maximum Displacement     0.006482     0.001800     NO 
 RMS     Displacement     0.002317     0.001200     NO 
 Predicted change in Energy=-1.101692D-05
 GradGradGradGradGradGradGradGradGradGradGradGradGradGradGradGradGradGrad

 1\1\GINC-FS\Force\RM062X\6-311G(d,p)\C1H3Br1Cl1(1-)\XINYAN\22-Jan-2019
 \0\\# M062X/6-311G** force nosymm int=ultrafine\\Title\\-1,1\C,0.39409
 ,0.00071,0.0006\H,0.71882,-0.8342,0.60654\H,0.71981,0.94338,0.42205\H,
 0.71564,-0.10537,-1.0243\Cl,3.40757,-0.00009,-0.00047\Br,-1.59734,-0.0
 0012,0.00006\\Version=ES64L-G16RevA.03\HF=-3074.3517013\RMSD=3.494e-09
 \RMSF=7.724e-04\Dipole=-4.4722924,0.0006804,0.0011964\Quadrupole=-27.9
 816287,13.9898807,13.9917481,0.0036205,0.0109346,-0.0003355\PG=C01 [X(
 C1H3Br1Cl1)]\\@


 ALL MEN WHO EXPLORE
 DEPLORE
 THAT FRUSTRATING HURDLE
 THE GIRDLE.

         -- COLIN FLETCHER
 Job cpu time:       0 days  0 hours  0 minutes 41.2 seconds.
 Elapsed time:       0 days  0 hours  0 minutes  9.0 seconds.
 File lengths (MBytes):  RWF=     10 Int=      0 D2E=      0 Chk=      2 Scr=      1
 Normal termination of Gaussian 16 at Tue Jan 22 16:52:55 2019.
