 Entering Gaussian System, Link 0=g16
 Input=CH3BrCl-44.gjf
 Output=CH3BrCl-44.log
 Initial command:
 /home/xinyan/g16/l1.exe "/scratch/tmp/Gau-14813.inp" -scrdir="/scratch/tmp/"
 Entering Link 1 = /home/xinyan/g16/l1.exe PID=     14814.
  
 Copyright (c) 1988,1990,1992,1993,1995,1998,2003,2009,2016,
            Gaussian, Inc.  All Rights Reserved.
  
 This is part of the Gaussian(R) 16 program.  It is based on
 the Gaussian(R) 09 system (copyright 2009, Gaussian, Inc.),
 the Gaussian(R) 03 system (copyright 2003, Gaussian, Inc.),
 the Gaussian(R) 98 system (copyright 1998, Gaussian, Inc.),
 the Gaussian(R) 94 system (copyright 1995, Gaussian, Inc.),
 the Gaussian 92(TM) system (copyright 1992, Gaussian, Inc.),
 the Gaussian 90(TM) system (copyright 1990, Gaussian, Inc.),
 the Gaussian 88(TM) system (copyright 1988, Gaussian, Inc.),
 the Gaussian 86(TM) system (copyright 1986, Carnegie Mellon
 University), and the Gaussian 82(TM) system (copyright 1983,
 Carnegie Mellon University). Gaussian is a federally registered
 trademark of Gaussian, Inc.
  
 This software contains proprietary and confidential information,
 including trade secrets, belonging to Gaussian, Inc.
  
 This software is provided under written license and may be
 used, copied, transmitted, or stored only in accord with that
 written license.
  
 The following legend is applicable only to US Government
 contracts under FAR:
  
                    RESTRICTED RIGHTS LEGEND
  
 Use, reproduction and disclosure by the US Government is
 subject to restrictions as set forth in subparagraphs (a)
 and (c) of the Commercial Computer Software - Restricted
 Rights clause in FAR 52.227-19.
  
 Gaussian, Inc.
 340 Quinnipiac St., Bldg. 40, Wallingford CT 06492
  
  
 ---------------------------------------------------------------
 Warning -- This program may not be used in any manner that
 competes with the business of Gaussian, Inc. or will provide
 assistance to any competitor of Gaussian, Inc.  The licensee
 of this program is prohibited from giving any competitor of
 Gaussian, Inc. access to this program.  By using this program,
 the user acknowledges that Gaussian, Inc. is engaged in the
 business of creating and licensing software in the field of
 computational chemistry and represents and warrants to the
 licensee that it is not a competitor of Gaussian, Inc. and that
 it will not use this program in any manner prohibited above.
 ---------------------------------------------------------------
  

 Cite this work as:
 Gaussian 16, Revision A.03,
 M. J. Frisch, G. W. Trucks, H. B. Schlegel, G. E. Scuseria, 
 M. A. Robb, J. R. Cheeseman, G. Scalmani, V. Barone, 
 G. A. Petersson, H. Nakatsuji, X. Li, M. Caricato, A. V. Marenich, 
 J. Bloino, B. G. Janesko, R. Gomperts, B. Mennucci, H. P. Hratchian, 
 J. V. Ortiz, A. F. Izmaylov, J. L. Sonnenberg, D. Williams-Young, 
 F. Ding, F. Lipparini, F. Egidi, J. Goings, B. Peng, A. Petrone, 
 T. Henderson, D. Ranasinghe, V. G. Zakrzewski, J. Gao, N. Rega, 
 G. Zheng, W. Liang, M. Hada, M. Ehara, K. Toyota, R. Fukuda, 
 J. Hasegawa, M. Ishida, T. Nakajima, Y. Honda, O. Kitao, H. Nakai, 
 T. Vreven, K. Throssell, J. A. Montgomery, Jr., J. E. Peralta, 
 F. Ogliaro, M. J. Bearpark, J. J. Heyd, E. N. Brothers, K. N. Kudin, 
 V. N. Staroverov, T. A. Keith, R. Kobayashi, J. Normand, 
 K. Raghavachari, A. P. Rendell, J. C. Burant, S. S. Iyengar, 
 J. Tomasi, M. Cossi, J. M. Millam, M. Klene, C. Adamo, R. Cammi, 
 J. W. Ochterski, R. L. Martin, K. Morokuma, O. Farkas, 
 J. B. Foresman, and D. J. Fox, Gaussian, Inc., Wallingford CT, 2016.
 
 ******************************************
 Gaussian 16:  ES64L-G16RevA.03 25-Dec-2016
                22-Jan-2019 
 ******************************************
 %nproc=5
 Will use up to    5 processors via shared memory.
 -------------------------------------------
 # M062X/6-311G** force nosymm int=ultrafine
 -------------------------------------------
 1/10=7,30=1,38=1/1,3;
 2/12=2,15=1,17=6,18=5,40=1/2;
 3/5=4,6=6,7=101,11=2,25=1,30=1,71=1,74=-55,75=-5/1,2,3;
 4//1;
 5/5=2,38=5/2;
 6/7=2,8=2,9=2,10=2,28=1/1;
 7/29=1,30=1/1,2,3,16;
 1/10=7,30=1/3;
 99//99;
 -----
 Title
 -----
 Symbolic Z-matrix:
 Charge = -1 Multiplicity = 1
 C                     1.26131   0.00015   0.00113 
 H                     0.95131  -0.84073   0.60331 
 H                     0.95137   0.94191   0.42871 
 H                     0.95005  -0.1004   -1.02782 
 Cl                    3.13425  -0.00005  -0.00019 
 Br                   -1.61701  -0.00001  -0.00014 
 

 GradGradGradGradGradGradGradGradGradGradGradGradGradGradGradGradGradGrad
 Berny optimization.
 Initialization pass.
 Trust Radius=3.00D-01 FncErr=1.00D-07 GrdErr=1.00D-07 EigMax=2.50D+02 EigMin=1.00D-04
 Number of steps in this run=      2 maximum allowed number of steps=      2.
 GradGradGradGradGradGradGradGradGradGradGradGradGradGradGradGradGradGrad

                          Input orientation:                          
 ---------------------------------------------------------------------
 Center     Atomic      Atomic             Coordinates (Angstroms)
 Number     Number       Type             X           Y           Z
 ---------------------------------------------------------------------
      1          6           0        1.261310    0.000150    0.001130
      2          1           0        0.951310   -0.840730    0.603310
      3          1           0        0.951370    0.941910    0.428710
      4          1           0        0.950050   -0.100400   -1.027820
      5         17           0        3.134250   -0.000050   -0.000190
      6         35           0       -1.617010   -0.000010   -0.000140
 ---------------------------------------------------------------------
                    Distance matrix (angstroms):
                    1          2          3          4          5
     1  C    0.000000
     2  H    1.079722   0.000000
     3  H    1.079722   1.791170   0.000000
     4  H    1.079690   1.791278   1.791059   0.000000
     5  Cl   1.872940   2.415819   2.415825   2.415952   0.000000
     6  Br   2.878320   2.768976   2.769061   2.766948   4.751260
                    6
     6  Br   0.000000
 Symmetry turned off by external request.
 This structure is nearly, but not quite of a higher symmetry.
 Consider Symm=Loose if the higher symmetry is desired.
 Stoichiometry    CH3BrCl(1-)
 Framework group  C1[X(CH3BrCl)]
 Deg. of freedom    12
 Full point group                 C1      NOp   1
 Rotational constants (GHZ):         156.2989094           0.8815139           0.8815132
 Standard basis: 6-311G(d,p) (5D, 7F)
   106 basis functions,   195 primitive gaussians,   111 cartesian basis functions
    31 alpha electrons       31 beta electrons
       nuclear repulsion energy       174.6467147560 Hartrees.
 NAtoms=    6 NActive=    6 NUniq=    6 SFac= 1.00D+00 NAtFMM=   60 NAOKFM=F Big=F
 Integral buffers will be    131072 words long.
 Raffenetti 2 integral format.
 Two-electron integral symmetry is turned off.
 One-electron integrals computed using PRISM.
 NBasis=   106 RedAO= T EigKep=  1.09D-02  NBF=   106
 NBsUse=   106 1.00D-06 EigRej= -1.00D+00 NBFU=   106
 ExpMin= 1.03D-01 ExpMax= 4.40D+05 ExpMxC= 1.51D+04 IAcc=3 IRadAn=         5 AccDes= 0.00D+00
 Harris functional with IExCor= 1009 and IRadAn=       5 diagonalized for initial guess.
 HarFok:  IExCor= 1009 AccDes= 0.00D+00 IRadAn=         5 IDoV= 1 UseB2=F ITyADJ=14
 ICtDFT=  3500011 ScaDFX=  1.000000  1.000000  1.000000  1.000000
 FoFCou: FMM=F IPFlag=           0 FMFlag=      100000 FMFlg1=           0
         NFxFlg=           0 DoJE=T BraDBF=F KetDBF=T FulRan=T
         wScrn=  0.000000 ICntrl=       500 IOpCl=  0 I1Cent=   200000004 NGrid=           0
         NMat0=    1 NMatS0=      1 NMatT0=    0 NMatD0=    1 NMtDS0=    0 NMtDT0=    0
 Symmetry not used in FoFCou.
 Keep R1 ints in memory in canonical form, NReq=20756204.
 Requested convergence on RMS density matrix=1.00D-08 within 128 cycles.
 Requested convergence on MAX density matrix=1.00D-06.
 Requested convergence on             energy=1.00D-06.
 No special actions if energy rises.
 Integral accuracy reduced to 1.0D-05 until final iterations.
 Initial convergence to 1.0D-05 achieved.  Increase integral accuracy.
 SCF Done:  E(RM062X) =  -3074.35460932     A.U. after   14 cycles
            NFock= 14  Conv=0.32D-08     -V/T= 2.0013

 **********************************************************************

            Population analysis using the SCF density.

 **********************************************************************

 Alpha  occ. eigenvalues -- -485.04279-102.51882 -63.03514 -56.86098 -56.86093
 Alpha  occ. eigenvalues --  -56.86093 -10.44210  -9.66074  -8.72120  -7.38509
 Alpha  occ. eigenvalues --   -7.37967  -7.37967  -6.54281  -6.54239  -6.54239
 Alpha  occ. eigenvalues --   -2.57467  -2.57453  -2.57453  -2.57421  -2.57421
 Alpha  occ. eigenvalues --   -0.79302  -0.62418  -0.55584  -0.36526  -0.36523
 Alpha  occ. eigenvalues --   -0.31492  -0.22645  -0.22644  -0.09561  -0.09560
 Alpha  occ. eigenvalues --   -0.09401
 Alpha virt. eigenvalues --    0.20318   0.23605   0.28878   0.28884   0.43496
 Alpha virt. eigenvalues --    0.46773   0.46776   0.47604   0.47605   0.52700
 Alpha virt. eigenvalues --    0.56354   0.56360   0.62901   0.71963   0.73685
 Alpha virt. eigenvalues --    0.76999   0.77006   0.88386   0.94649   0.94651
 Alpha virt. eigenvalues --    0.95305   0.95307   0.99746   1.03502   1.03504
 Alpha virt. eigenvalues --    1.09256   1.09258   1.19328   1.25192   1.32572
 Alpha virt. eigenvalues --    1.32576   1.62814   1.66127   1.66132   1.87595
 Alpha virt. eigenvalues --    1.87597   1.88012   2.05686   2.16859   2.16866
 Alpha virt. eigenvalues --    2.26934   2.26937   2.28452   2.38709   2.38715
 Alpha virt. eigenvalues --    2.53941   2.55974   2.60427   2.60432   2.70853
 Alpha virt. eigenvalues --    2.70860   3.11203   3.28113   3.91005   3.91023
 Alpha virt. eigenvalues --    4.56331   4.56333   4.57338   4.57342   4.71395
 Alpha virt. eigenvalues --    6.79400   7.81820   7.81823   7.87901   9.85649
 Alpha virt. eigenvalues --   24.08828  25.69891  25.69894  26.23732  48.38042
 Alpha virt. eigenvalues --  215.90807 290.98387 290.98390 291.045751020.86681
          Condensed to atoms (all electrons):
               1          2          3          4          5          6
     1  C    5.062442   0.409553   0.409542   0.409598   0.127967  -0.037456
     2  H    0.409553   0.504795  -0.019804  -0.019775  -0.058821  -0.006322
     3  H    0.409542  -0.019804   0.504833  -0.019799  -0.058814  -0.006316
     4  H    0.409598  -0.019775  -0.019799   0.504642  -0.058821  -0.006366
     5  Cl   0.127967  -0.058821  -0.058814  -0.058821  17.325106   0.012384
     6  Br  -0.037456  -0.006322  -0.006316  -0.006366   0.012384  35.944683
 Mulliken charges:
               1
     1  C   -0.381647
     2  H    0.190374
     3  H    0.190358
     4  H    0.190522
     5  Cl  -0.289001
     6  Br  -0.900606
 Sum of Mulliken charges =  -1.00000
 Mulliken charges with hydrogens summed into heavy atoms:
               1
     1  C    0.189608
     5  Cl  -0.289001
     6  Br  -0.900606
 Electronic spatial extent (au):  <R**2>=           1096.4386
 Charge=             -1.0000 electrons
 Dipole moment (field-independent basis, Debye):
    X=              2.8719    Y=              0.0006    Z=              0.0025  Tot=              2.8719
 Quadrupole moment (field-independent basis, Debye-Ang):
   XX=            -72.3861   YY=            -43.1865   ZZ=            -43.1854
   XY=              0.0002   XZ=              0.0016   YZ=             -0.0005
 Traceless Quadrupole moment (field-independent basis, Debye-Ang):
   XX=            -19.4668   YY=              9.7328   ZZ=              9.7340
   XY=              0.0002   XZ=              0.0016   YZ=             -0.0005
 Octapole moment (field-independent basis, Debye-Ang**2):
  XXX=            -82.1655  YYY=              0.2680  ZZZ=             -0.8961  XYY=            -16.3353
  XXY=              0.0008  XXZ=             -0.0003  XZZ=            -16.3378  YZZ=             -0.2684
  YYZ=              0.8887  XYZ=             -0.0003
 Hexadecapole moment (field-independent basis, Debye-Ang**3):
 XXXX=          -1464.2263 YYYY=            -63.7899 ZZZZ=            -63.7910 XXXY=             -0.0025
 XXXZ=             -0.0423 YYYX=              0.2737 YYYZ=              0.0007 ZZZX=             -0.9247
 ZZZY=             -0.0018 XXYY=           -230.2360 XXZZ=           -230.2365 YYZZ=            -21.2604
 XXYZ=             -0.0013 YYXZ=              0.8991 ZZXY=             -0.2727
 N-N= 1.746467147560D+02 E-N=-7.704259178006D+03  KE= 3.070250391618D+03
 Calling FoFJK, ICntrl=      2127 FMM=F ISym2X=0 I1Cent= 0 IOpClX= 0 NMat=1 NMatS=1 NMatT=0.
 -------------------------------------------------------------------
 Center     Atomic                   Forces (Hartrees/Bohr)
 Number     Number              X              Y              Z
 -------------------------------------------------------------------
      1        6           0.013209711    0.000011077    0.000012124
      2        1           0.000622012    0.000034822   -0.000024851
      3        1           0.000622240   -0.000039960   -0.000014731
      4        1           0.000616011    0.000007989    0.000041119
      5       17          -0.001000578   -0.000006325   -0.000004591
      6       35          -0.014069395   -0.000007603   -0.000009070
 -------------------------------------------------------------------
 Cartesian Forces:  Max     0.014069395 RMS     0.004561950

 GradGradGradGradGradGradGradGradGradGradGradGradGradGradGradGradGradGrad
 Berny optimization.
 Search for a local minimum.
 Step number   1 out of a maximum of    2
 All quantities printed in internal units (Hartrees-Bohrs-Radians)
 Second derivative matrix not updated -- first step.
 The second derivative matrix:
                          X1        Y1        Z1        X2        Y2
           X1           0.49778
           Y1           0.00002   0.65695
           Z1           0.00017  -0.00006   0.65704
           X2          -0.09546  -0.07357   0.05266   0.07982
           Y2          -0.06454  -0.24919   0.11724   0.06835   0.24248
           Z2           0.04620   0.11725  -0.16946  -0.04893  -0.12930
           X3          -0.09544   0.08237   0.03738   0.00780  -0.01040
           Y3           0.07227  -0.29083  -0.09324   0.00816  -0.01177
           Z3           0.03280  -0.09325  -0.12782  -0.01233   0.01838
           X4          -0.09567  -0.00884  -0.09034   0.00783   0.00660
           Y4          -0.00776  -0.08783  -0.02395   0.01435   0.01419
           Z4          -0.07930  -0.02395  -0.33065  -0.00377  -0.00338
           X5          -0.21121   0.00002   0.00013   0.00001  -0.00000
           Y5           0.00002  -0.02910   0.00000  -0.01729   0.00428
           Z5           0.00013   0.00000  -0.02911   0.01238  -0.00293
           X6           0.00000   0.00000   0.00000   0.00000   0.00000
           Y6           0.00000   0.00000   0.00000   0.00000   0.00000
           Z6           0.00000   0.00000   0.00000   0.00000   0.00000
                          Z2        X3        Y3        Z3        X4
           Z2           0.15453
           X3          -0.01051   0.07981
           Y3          -0.01223  -0.07653   0.28841
           Z3           0.01932  -0.03474   0.10283   0.10862
           X4           0.01325   0.00783  -0.00390   0.01427   0.08003
           Y4           0.02720  -0.01480   0.00888  -0.03028   0.00821
           Z4          -0.00667  -0.00092   0.00031  -0.00136   0.08398
           X5           0.00000   0.00001   0.00000   0.00000  -0.00002
           Y5          -0.00292   0.01937   0.00532   0.00232  -0.00207
           Z5           0.00227   0.00879   0.00233   0.00124  -0.02116
           X6           0.00000   0.00000   0.00000   0.00000   0.00000
           Y6           0.00000   0.00000   0.00000   0.00000   0.00000
           Z6           0.00000   0.00000   0.00000   0.00000   0.00000
                          Y4        Z4        X5        Y5        Z5
           Y4           0.06452
           Z4           0.02642   0.33233
           X5           0.00000   0.00000   0.21121
           Y5           0.00024   0.00060  -0.00002   0.01926
           Z5           0.00060   0.00634  -0.00014  -0.00000   0.01926
           X6           0.00000   0.00000   0.00000   0.00000   0.00000
           Y6           0.00000   0.00000   0.00000   0.00000   0.00000
           Z6           0.00000   0.00000   0.00000   0.00000   0.00000
                          X6        Y6        Z6
           X6           1.00000
           Y6           0.00000   1.00000
           Z6           0.00000   0.00000   1.00000
 ITU=  0
     Eigenvalues ---    0.03026   0.03026   0.06862   0.06862   0.08593
     Eigenvalues ---    0.13799   0.13800   0.28909   0.46829   0.70431
     Eigenvalues ---    0.94649   0.94665
 Angle between quadratic step and forces=  40.85 degrees.
 Linear search not attempted -- first point.
 B after Tr=    -0.011682   -0.000063   -0.000088
         Rot=    1.000000    0.000000    0.000004   -0.000002 Ang=   0.00 deg.
 Variable       Old X    -DE/DX   Delta X   Delta X   Delta X     New X
                                 (Linear)    (Quad)   (Total)
    X1        2.38353   0.01321   0.00000   0.03198   0.02030   2.40383
    Y1        0.00028   0.00001   0.00000   0.00011   0.00006   0.00034
    Z1        0.00214   0.00001   0.00000   0.00013   0.00006   0.00220
    X2        1.79772   0.00062   0.00000   0.02080   0.00912   1.80683
    Y2       -1.58875   0.00003   0.00000   0.00237   0.00231  -1.58644
    Z2        1.14009  -0.00002   0.00000  -0.00146  -0.00154   1.13856
    X3        1.79783   0.00062   0.00000   0.02087   0.00917   1.80700
    Y3        1.77995  -0.00004   0.00000  -0.00240  -0.00245   1.77750
    Z3        0.81014  -0.00001   0.00000  -0.00100  -0.00107   0.80908
    X4        1.79533   0.00062   0.00000   0.02066   0.00899   1.80433
    Y4       -0.18973   0.00001   0.00000   0.00039   0.00033  -0.18940
    Z4       -1.94230   0.00004   0.00000   0.00292   0.00285  -1.93945
    X5        5.92287  -0.00100   0.00000  -0.00145  -0.01313   5.90974
    Y5       -0.00009  -0.00001   0.00000  -0.00008  -0.00012  -0.00021
    Z5       -0.00036  -0.00000   0.00000  -0.00009  -0.00013  -0.00048
    X6       -3.05571  -0.01407   0.00000  -0.02276  -0.03445  -3.09015
    Y6       -0.00002  -0.00001   0.00000  -0.00005  -0.00013  -0.00014
    Z6       -0.00026  -0.00001   0.00000  -0.00007  -0.00019  -0.00045
         Item               Value     Threshold  Converged?
 Maximum Force            0.014069     0.000450     NO 
 RMS     Force            0.004562     0.000300     NO 
 Maximum Displacement     0.034447     0.001800     NO 
 RMS     Displacement     0.010652     0.001200     NO 
 Predicted change in Energy=-5.738001D-05
 GradGradGradGradGradGradGradGradGradGradGradGradGradGradGradGradGradGrad

 1\1\GINC-FS\Force\RM062X\6-311G(d,p)\C1H3Br1Cl1(1-)\XINYAN\22-Jan-2019
 \0\\# M062X/6-311G** force nosymm int=ultrafine\\Title\\-1,1\C,1.26131
 ,0.00015,0.00113\H,0.95131,-0.84073,0.60331\H,0.95137,0.94191,0.42871\
 H,0.95005,-0.1004,-1.02782\Cl,3.13425,-0.00005,-0.00019\Br,-1.61701,-0
 .00001,-0.00014\\Version=ES64L-G16RevA.03\HF=-3074.3546093\RMSD=3.190e
 -09\RMSF=4.562e-03\Dipole=1.3500578,0.0002384,0.0010548\Quadrupole=-14
 .4730678,7.2361117,7.2369561,0.0001777,0.0011979,-0.000386\PG=C01 [X(C
 1H3Br1Cl1)]\\@


 ADAM SMITH SAID, "THE REAL PRICE OF ANYTHING IS THE TOIL AND TROUBLE
 OF ACQUIRING IT."  BUT IN ALL UNDERTAKINGS WITH NATURE WE SHOULD FIRST
 READ CAREFULLY THE SMALL PRINT IN THE CONTRACT. THIS MIGHT DISCLOSE
 THAT THE REAL PRICE IS TO BE PAID BY THOSE WHO INHERIT THE DEPLETION
 AND DESPOILATION THAT FOLLOWS.
                               -- E. R. HARRISON IN "COSMOLOGY" (1980)
 Job cpu time:       0 days  0 hours  0 minutes 36.7 seconds.
 Elapsed time:       0 days  0 hours  0 minutes  8.0 seconds.
 File lengths (MBytes):  RWF=     10 Int=      0 D2E=      0 Chk=      2 Scr=      1
 Normal termination of Gaussian 16 at Tue Jan 22 16:55:29 2019.
