 Entering Gaussian System, Link 0=g16
 Input=CH3BrCl-33.gjf
 Output=CH3BrCl-33.log
 Initial command:
 /home/xinyan/g16/l1.exe "/scratch/tmp/Gau-14084.inp" -scrdir="/scratch/tmp/"
 Entering Link 1 = /home/xinyan/g16/l1.exe PID=     14085.
  
 Copyright (c) 1988,1990,1992,1993,1995,1998,2003,2009,2016,
            Gaussian, Inc.  All Rights Reserved.
  
 This is part of the Gaussian(R) 16 program.  It is based on
 the Gaussian(R) 09 system (copyright 2009, Gaussian, Inc.),
 the Gaussian(R) 03 system (copyright 2003, Gaussian, Inc.),
 the Gaussian(R) 98 system (copyright 1998, Gaussian, Inc.),
 the Gaussian(R) 94 system (copyright 1995, Gaussian, Inc.),
 the Gaussian 92(TM) system (copyright 1992, Gaussian, Inc.),
 the Gaussian 90(TM) system (copyright 1990, Gaussian, Inc.),
 the Gaussian 88(TM) system (copyright 1988, Gaussian, Inc.),
 the Gaussian 86(TM) system (copyright 1986, Carnegie Mellon
 University), and the Gaussian 82(TM) system (copyright 1983,
 Carnegie Mellon University). Gaussian is a federally registered
 trademark of Gaussian, Inc.
  
 This software contains proprietary and confidential information,
 including trade secrets, belonging to Gaussian, Inc.
  
 This software is provided under written license and may be
 used, copied, transmitted, or stored only in accord with that
 written license.
  
 The following legend is applicable only to US Government
 contracts under FAR:
  
                    RESTRICTED RIGHTS LEGEND
  
 Use, reproduction and disclosure by the US Government is
 subject to restrictions as set forth in subparagraphs (a)
 and (c) of the Commercial Computer Software - Restricted
 Rights clause in FAR 52.227-19.
  
 Gaussian, Inc.
 340 Quinnipiac St., Bldg. 40, Wallingford CT 06492
  
  
 ---------------------------------------------------------------
 Warning -- This program may not be used in any manner that
 competes with the business of Gaussian, Inc. or will provide
 assistance to any competitor of Gaussian, Inc.  The licensee
 of this program is prohibited from giving any competitor of
 Gaussian, Inc. access to this program.  By using this program,
 the user acknowledges that Gaussian, Inc. is engaged in the
 business of creating and licensing software in the field of
 computational chemistry and represents and warrants to the
 licensee that it is not a competitor of Gaussian, Inc. and that
 it will not use this program in any manner prohibited above.
 ---------------------------------------------------------------
  

 Cite this work as:
 Gaussian 16, Revision A.03,
 M. J. Frisch, G. W. Trucks, H. B. Schlegel, G. E. Scuseria, 
 M. A. Robb, J. R. Cheeseman, G. Scalmani, V. Barone, 
 G. A. Petersson, H. Nakatsuji, X. Li, M. Caricato, A. V. Marenich, 
 J. Bloino, B. G. Janesko, R. Gomperts, B. Mennucci, H. P. Hratchian, 
 J. V. Ortiz, A. F. Izmaylov, J. L. Sonnenberg, D. Williams-Young, 
 F. Ding, F. Lipparini, F. Egidi, J. Goings, B. Peng, A. Petrone, 
 T. Henderson, D. Ranasinghe, V. G. Zakrzewski, J. Gao, N. Rega, 
 G. Zheng, W. Liang, M. Hada, M. Ehara, K. Toyota, R. Fukuda, 
 J. Hasegawa, M. Ishida, T. Nakajima, Y. Honda, O. Kitao, H. Nakai, 
 T. Vreven, K. Throssell, J. A. Montgomery, Jr., J. E. Peralta, 
 F. Ogliaro, M. J. Bearpark, J. J. Heyd, E. N. Brothers, K. N. Kudin, 
 V. N. Staroverov, T. A. Keith, R. Kobayashi, J. Normand, 
 K. Raghavachari, A. P. Rendell, J. C. Burant, S. S. Iyengar, 
 J. Tomasi, M. Cossi, J. M. Millam, M. Klene, C. Adamo, R. Cammi, 
 J. W. Ochterski, R. L. Martin, K. Morokuma, O. Farkas, 
 J. B. Foresman, and D. J. Fox, Gaussian, Inc., Wallingford CT, 2016.
 
 ******************************************
 Gaussian 16:  ES64L-G16RevA.03 25-Dec-2016
                22-Jan-2019 
 ******************************************
 %nproc=5
 Will use up to    5 processors via shared memory.
 -------------------------------------------
 # M062X/6-311G** force nosymm int=ultrafine
 -------------------------------------------
 1/10=7,30=1,38=1/1,3;
 2/12=2,15=1,17=6,18=5,40=1/2;
 3/5=4,6=6,7=101,11=2,25=1,30=1,71=1,74=-55,75=-5/1,2,3;
 4//1;
 5/5=2,38=5/2;
 6/7=2,8=2,9=2,10=2,28=1/1;
 7/29=1,30=1/1,2,3,16;
 1/10=7,30=1/3;
 99//99;
 -----
 Title
 -----
 Symbolic Z-matrix:
 Charge = -1 Multiplicity = 1
 C                     0.98075   0.00016   0.00123 
 H                     0.87551  -0.86907   0.62361 
 H                     0.87537   0.97371   0.44291 
 H                     0.87512  -0.10414  -1.06264 
 Cl                    3.17902  -0.00004  -0.00024 
 Br                   -1.59129  -0.00002  -0.00013 
 

 GradGradGradGradGradGradGradGradGradGradGradGradGradGradGradGradGradGrad
 Berny optimization.
 Initialization pass.
 Trust Radius=3.00D-01 FncErr=1.00D-07 GrdErr=1.00D-07 EigMax=2.50D+02 EigMin=1.00D-04
 Number of steps in this run=      2 maximum allowed number of steps=      2.
 GradGradGradGradGradGradGradGradGradGradGradGradGradGradGradGradGradGrad

                          Input orientation:                          
 ---------------------------------------------------------------------
 Center     Atomic      Atomic             Coordinates (Angstroms)
 Number     Number       Type             X           Y           Z
 ---------------------------------------------------------------------
      1          6           0        0.980750    0.000160    0.001230
      2          1           0        0.875510   -0.869070    0.623610
      3          1           0        0.875370    0.973710    0.442910
      4          1           0        0.875120   -0.104140   -1.062640
      5         17           0        3.179020   -0.000040   -0.000240
      6         35           0       -1.591290   -0.000020   -0.000130
 ---------------------------------------------------------------------
                    Distance matrix (angstroms):
                    1          2          3          4          5
     1  C    0.000000
     2  H    1.074241   0.000000
     3  H    1.074237   1.851618   0.000000
     4  H    1.074177   1.851636   1.851605   0.000000
     5  Cl   2.198271   2.539795   2.539956   2.539190   0.000000
     6  Br   2.572040   2.688755   2.688651   2.687554   4.770310
                    6
     6  Br   0.000000
 Symmetry turned off by external request.
 This structure is nearly, but not quite of a higher symmetry.
 Consider Symm=Loose if the higher symmetry is desired.
 Stoichiometry    CH3BrCl(1-)
 Framework group  C1[X(CH3BrCl)]
 Deg. of freedom    12
 Full point group                 C1      NOp   1
 Rotational constants (GHZ):         146.2598024           0.8884611           0.8884610
 Standard basis: 6-311G(d,p) (5D, 7F)
   106 basis functions,   195 primitive gaussians,   111 cartesian basis functions
    31 alpha electrons       31 beta electrons
       nuclear repulsion energy       174.7836086177 Hartrees.
 NAtoms=    6 NActive=    6 NUniq=    6 SFac= 1.00D+00 NAtFMM=   60 NAOKFM=F Big=F
 Integral buffers will be    131072 words long.
 Raffenetti 2 integral format.
 Two-electron integral symmetry is turned off.
 One-electron integrals computed using PRISM.
 NBasis=   106 RedAO= T EigKep=  1.10D-02  NBF=   106
 NBsUse=   106 1.00D-06 EigRej= -1.00D+00 NBFU=   106
 ExpMin= 1.03D-01 ExpMax= 4.40D+05 ExpMxC= 1.51D+04 IAcc=3 IRadAn=         5 AccDes= 0.00D+00
 Harris functional with IExCor= 1009 and IRadAn=       5 diagonalized for initial guess.
 HarFok:  IExCor= 1009 AccDes= 0.00D+00 IRadAn=         5 IDoV= 1 UseB2=F ITyADJ=14
 ICtDFT=  3500011 ScaDFX=  1.000000  1.000000  1.000000  1.000000
 FoFCou: FMM=F IPFlag=           0 FMFlag=      100000 FMFlg1=           0
         NFxFlg=           0 DoJE=T BraDBF=F KetDBF=T FulRan=T
         wScrn=  0.000000 ICntrl=       500 IOpCl=  0 I1Cent=   200000004 NGrid=           0
         NMat0=    1 NMatS0=      1 NMatT0=    0 NMatD0=    1 NMtDS0=    0 NMtDT0=    0
 Symmetry not used in FoFCou.
 Keep R1 ints in memory in canonical form, NReq=20756192.
 Requested convergence on RMS density matrix=1.00D-08 within 128 cycles.
 Requested convergence on MAX density matrix=1.00D-06.
 Requested convergence on             energy=1.00D-06.
 No special actions if energy rises.
 Integral accuracy reduced to 1.0D-05 until final iterations.
 Initial convergence to 1.0D-05 achieved.  Increase integral accuracy.
 SCF Done:  E(RM062X) =  -3074.33994531     A.U. after   14 cycles
            NFock= 14  Conv=0.45D-08     -V/T= 2.0014

 **********************************************************************

            Population analysis using the SCF density.

 **********************************************************************

 Alpha  occ. eigenvalues -- -485.08354-102.46474 -63.07588 -56.90209 -56.90143
 Alpha  occ. eigenvalues --  -56.90143 -10.45942  -9.60578  -8.76209  -7.32904
 Alpha  occ. eigenvalues --   -7.32531  -7.32531  -6.58517  -6.58242  -6.58242
 Alpha  occ. eigenvalues --   -2.61687  -2.61601  -2.61601  -2.61362  -2.61362
 Alpha  occ. eigenvalues --   -0.71980  -0.64133  -0.58487  -0.37015  -0.37014
 Alpha  occ. eigenvalues --   -0.24733  -0.18977  -0.18977  -0.12930  -0.12929
 Alpha  occ. eigenvalues --   -0.12311
 Alpha virt. eigenvalues --    0.15759   0.22574   0.28787   0.28792   0.45339
 Alpha virt. eigenvalues --    0.47058   0.47059   0.49090   0.49897   0.49897
 Alpha virt. eigenvalues --    0.54224   0.54227   0.65980   0.68202   0.76062
 Alpha virt. eigenvalues --    0.76783   0.76788   0.91235   0.91237   0.91281
 Alpha virt. eigenvalues --    0.91584   0.91586   0.95606   1.12358   1.12362
 Alpha virt. eigenvalues --    1.14359   1.14360   1.22319   1.29378   1.29382
 Alpha virt. eigenvalues --    1.29525   1.58719   1.63141   1.63149   1.69645
 Alpha virt. eigenvalues --    1.96745   1.96747   1.99213   2.11047   2.11053
 Alpha virt. eigenvalues --    2.20060   2.20061   2.27977   2.36541   2.36543
 Alpha virt. eigenvalues --    2.47838   2.60242   2.60245   2.64312   2.78379
 Alpha virt. eigenvalues --    2.78379   3.03210   3.14668   3.89709   3.89717
 Alpha virt. eigenvalues --    4.52545   4.52546   4.53971   4.53973   4.71109
 Alpha virt. eigenvalues --    6.76685   7.78274   7.78276   7.85345   9.85121
 Alpha virt. eigenvalues --   24.08398  25.71398  25.71401  26.09272  48.34901
 Alpha virt. eigenvalues --  215.89926 290.94395 290.94397 291.019731020.83797
          Condensed to atoms (all electrons):
               1          2          3          4          5          6
     1  C    4.990803   0.413651   0.413644   0.413754   0.090806   0.024452
     2  H    0.413651   0.496108  -0.016619  -0.016583  -0.049649  -0.030172
     3  H    0.413644  -0.016619   0.496109  -0.016588  -0.049631  -0.030174
     4  H    0.413754  -0.016583  -0.016588   0.496054  -0.049754  -0.030285
     5  Cl   0.090806  -0.049649  -0.049631  -0.049754  17.570413   0.017036
     6  Br   0.024452  -0.030172  -0.030174  -0.030285   0.017036  35.782737
 Mulliken charges:
               1
     1  C   -0.347109
     2  H    0.203264
     3  H    0.203260
     4  H    0.203401
     5  Cl  -0.529222
     6  Br  -0.733594
 Sum of Mulliken charges =  -1.00000
 Mulliken charges with hydrogens summed into heavy atoms:
               1
     1  C    0.262816
     5  Cl  -0.529222
     6  Br  -0.733594
 Electronic spatial extent (au):  <R**2>=           1095.6239
 Charge=             -1.0000 electrons
 Dipole moment (field-independent basis, Debye):
    X=             -1.5909    Y=              0.0005    Z=              0.0028  Tot=              1.5909
 Quadrupole moment (field-independent basis, Debye-Ang):
   XX=            -81.2961   YY=            -43.1096   ZZ=            -43.1088
   XY=             -0.0000   XZ=              0.0026   YZ=             -0.0002
 Traceless Quadrupole moment (field-independent basis, Debye-Ang):
   XX=            -25.4580   YY=             12.7286   ZZ=             12.7294
   XY=             -0.0000   XZ=              0.0026   YZ=             -0.0002
 Octapole moment (field-independent basis, Debye-Ang**2):
  XXX=           -136.5090  YYY=              0.3289  ZZZ=             -1.0927  XYY=            -19.4690
  XXY=              0.0002  XXZ=             -0.0012  XZZ=            -19.4701  YZZ=             -0.3285
  YYZ=              1.0871  XYZ=              0.0000
 Hexadecapole moment (field-independent basis, Debye-Ang**3):
 XXXX=          -1617.9735 YYYY=            -63.7013 ZZZZ=            -63.7034 XXXY=             -0.0027
 XXXZ=             -0.0121 YYYX=              0.2988 YYYZ=              0.0004 ZZZX=             -0.9922
 ZZZY=             -0.0019 XXYY=           -236.2697 XXZZ=           -236.2699 YYZZ=            -21.2307
 XXYZ=             -0.0012 YYXZ=              0.9884 ZZXY=             -0.2987
 N-N= 1.747836086177D+02 E-N=-7.703927532385D+03  KE= 3.070153754201D+03
 Calling FoFJK, ICntrl=      2127 FMM=F ISym2X=0 I1Cent= 0 IOpClX= 0 NMat=1 NMatS=1 NMatT=0.
 -------------------------------------------------------------------
 Center     Atomic                   Forces (Hartrees/Bohr)
 Number     Number              X              Y              Z
 -------------------------------------------------------------------
      1        6           0.017868601   -0.000005464   -0.000015278
      2        1           0.000134161    0.000335566   -0.000238833
      3        1           0.000138687   -0.000371419   -0.000170148
      4        1           0.000137713    0.000041181    0.000409554
      5       17          -0.008964609   -0.000000299    0.000020915
      6       35          -0.009314552    0.000000435   -0.000006210
 -------------------------------------------------------------------
 Cartesian Forces:  Max     0.017868601 RMS     0.005201361

 GradGradGradGradGradGradGradGradGradGradGradGradGradGradGradGradGradGrad
 Berny optimization.
 Search for a local minimum.
 Step number   1 out of a maximum of    2
 All quantities printed in internal units (Hartrees-Bohrs-Radians)
 Second derivative matrix not updated -- first step.
 The second derivative matrix:
                          X1        Y1        Z1        X2        Y2
           X1           0.30886
           Y1          -0.00004   0.73219
           Z1           0.00003   0.00000   0.73225
           X2          -0.07125  -0.01953   0.01400   0.05245
           Y2          -0.02367  -0.27912   0.11944   0.02517   0.26621
           Z2           0.01696   0.11943  -0.19782  -0.01804  -0.13650
           X3          -0.07126   0.02192   0.00995   0.00939  -0.00445
           Y3           0.02655  -0.32156  -0.09493   0.00347  -0.00970
           Z3           0.01205  -0.09492  -0.15537  -0.00541   0.02032
           X4          -0.07126  -0.00235  -0.02403   0.00940   0.00295
           Y4          -0.00285  -0.11472  -0.02451   0.00625   0.02136
           Z4          -0.02909  -0.02451  -0.36228  -0.00155  -0.00239
           X5          -0.09509   0.00001   0.00005   0.00001  -0.00000
           Y5           0.00001  -0.01679   0.00000  -0.01536   0.00125
           Z5           0.00005   0.00000  -0.01678   0.01100  -0.00086
           X6           0.00000   0.00000   0.00000   0.00000   0.00000
           Y6           0.00000   0.00000   0.00000   0.00000   0.00000
           Z6           0.00000   0.00000   0.00000   0.00000   0.00000
                          Z2        X3        Y3        Z3        X4
           Z2           0.17330
           X3          -0.00463   0.05246
           Y3          -0.01296  -0.02823   0.31472
           Z3           0.02746  -0.01282   0.10850   0.12479
           X4           0.00571   0.00940  -0.00179   0.00618   0.05248
           Y4           0.03088  -0.00644   0.01498  -0.03456   0.00303
           Z4          -0.00360  -0.00030  -0.00129   0.00277   0.03094
           X5           0.00000   0.00001   0.00000   0.00000  -0.00001
           Y5          -0.00085   0.01720   0.00156   0.00068  -0.00184
           Z5           0.00065   0.00780   0.00069   0.00035  -0.01880
           X6           0.00000   0.00000   0.00000   0.00000   0.00000
           Y6           0.00000   0.00000   0.00000   0.00000   0.00000
           Z6           0.00000   0.00000   0.00000   0.00000   0.00000
                          Y4        Z4        X5        Y5        Z5
           Y4           0.07832
           Z4           0.02801   0.36125
           X5           0.00000   0.00000   0.09509
           Y5           0.00006   0.00018  -0.00001   0.01393
           Z5           0.00018   0.00185  -0.00005  -0.00000   0.01393
           X6           0.00000   0.00000   0.00000   0.00000   0.00000
           Y6           0.00000   0.00000   0.00000   0.00000   0.00000
           Z6           0.00000   0.00000   0.00000   0.00000   0.00000
                          X6        Y6        Z6
           X6           1.00000
           Y6           0.00000   1.00000
           Z6           0.00000   0.00000   1.00000
 ITU=  0
     Eigenvalues ---    0.03686   0.03686   0.05693   0.05693   0.05867
     Eigenvalues ---    0.16178   0.16180   0.32032   0.41287   0.46198
     Eigenvalues ---    1.02748   1.02760
 Angle between quadratic step and forces=  49.59 degrees.
 Linear search not attempted -- first point.
 B after Tr=    -0.028477   -0.000013    0.000042
         Rot=    1.000000    0.000000    0.000001   -0.000002 Ang=   0.00 deg.
 Variable       Old X    -DE/DX   Delta X   Delta X   Delta X     New X
                                 (Linear)    (Quad)   (Total)
    X1        1.85335   0.01787   0.00000   0.07205   0.04357   1.89692
    Y1        0.00030  -0.00001   0.00000   0.00000  -0.00000   0.00030
    Z1        0.00232  -0.00002   0.00000  -0.00010  -0.00005   0.00227
    X2        1.65447   0.00013   0.00000   0.05937   0.03090   1.68537
    Y2       -1.64230   0.00034   0.00000   0.00175   0.00175  -1.64056
    Z2        1.17845  -0.00024   0.00000  -0.00134  -0.00129   1.17716
    X3        1.65421   0.00014   0.00000   0.05948   0.03100   1.68521
    Y3        1.84005  -0.00037   0.00000  -0.00193  -0.00194   1.83811
    Z3        0.83698  -0.00017   0.00000  -0.00098  -0.00094   0.83604
    X4        1.65374   0.00014   0.00000   0.05945   0.03098   1.68472
    Y4       -0.19680   0.00004   0.00000   0.00023   0.00022  -0.19658
    Z4       -2.00810   0.00041   0.00000   0.00203   0.00208  -2.00602
    X5        6.00748  -0.00896   0.00000  -0.06442  -0.09290   5.91458
    Y5       -0.00008  -0.00000   0.00000   0.00000   0.00001  -0.00006
    Z5       -0.00045   0.00002   0.00000   0.00009   0.00014  -0.00031
    X6       -3.00710  -0.00931   0.00000  -0.01507  -0.04355  -3.05065
    Y6       -0.00004   0.00000   0.00000  -0.00001  -0.00004  -0.00007
    Z6       -0.00025  -0.00001   0.00000   0.00002   0.00006  -0.00018
         Item               Value     Threshold  Converged?
 Maximum Force            0.017869     0.000450     NO 
 RMS     Force            0.005201     0.000300     NO 
 Maximum Displacement     0.092899     0.001800     NO 
 RMS     Displacement     0.029168     0.001200     NO 
 Predicted change in Energy=-1.815145D-04
 GradGradGradGradGradGradGradGradGradGradGradGradGradGradGradGradGradGrad

 1\1\GINC-FS\Force\RM062X\6-311G(d,p)\C1H3Br1Cl1(1-)\XINYAN\22-Jan-2019
 \0\\# M062X/6-311G** force nosymm int=ultrafine\\Title\\-1,1\C,0.98075
 ,0.00016,0.00123\H,0.87551,-0.86907,0.62361\H,0.87537,0.97371,0.44291\
 H,0.87512,-0.10414,-1.06264\Cl,3.17902,-0.00004,-0.00024\Br,-1.59129,-
 0.00002,-0.00013\\Version=ES64L-G16RevA.03\HF=-3074.3399453\RMSD=4.539
 e-09\RMSF=5.201e-03\Dipole=-0.413429,0.0002027,0.0011939\Quadrupole=-1
 8.9273798,9.463397,9.4639828,-0.0000371,0.0018962,-0.0001579\PG=C01 [X
 (C1H3Br1Cl1)]\\@


 IF YOU GIVE EVERYONE A PIECE OF YOUR MIND,
 PRETTY SOON IT WILL BE ALL GONE.
 Job cpu time:       0 days  0 hours  0 minutes 37.9 seconds.
 Elapsed time:       0 days  0 hours  0 minutes  8.2 seconds.
 File lengths (MBytes):  RWF=     10 Int=      0 D2E=      0 Chk=      2 Scr=      1
 Normal termination of Gaussian 16 at Tue Jan 22 16:53:55 2019.
