 Entering Gaussian System, Link 0=g16
 Input=CH3BrCl-54.gjf
 Output=CH3BrCl-54.log
 Initial command:
 /home/xinyan/g16/l1.exe "/scratch/tmp/Gau-15490.inp" -scrdir="/scratch/tmp/"
 Entering Link 1 = /home/xinyan/g16/l1.exe PID=     15491.
  
 Copyright (c) 1988,1990,1992,1993,1995,1998,2003,2009,2016,
            Gaussian, Inc.  All Rights Reserved.
  
 This is part of the Gaussian(R) 16 program.  It is based on
 the Gaussian(R) 09 system (copyright 2009, Gaussian, Inc.),
 the Gaussian(R) 03 system (copyright 2003, Gaussian, Inc.),
 the Gaussian(R) 98 system (copyright 1998, Gaussian, Inc.),
 the Gaussian(R) 94 system (copyright 1995, Gaussian, Inc.),
 the Gaussian 92(TM) system (copyright 1992, Gaussian, Inc.),
 the Gaussian 90(TM) system (copyright 1990, Gaussian, Inc.),
 the Gaussian 88(TM) system (copyright 1988, Gaussian, Inc.),
 the Gaussian 86(TM) system (copyright 1986, Carnegie Mellon
 University), and the Gaussian 82(TM) system (copyright 1983,
 Carnegie Mellon University). Gaussian is a federally registered
 trademark of Gaussian, Inc.
  
 This software contains proprietary and confidential information,
 including trade secrets, belonging to Gaussian, Inc.
  
 This software is provided under written license and may be
 used, copied, transmitted, or stored only in accord with that
 written license.
  
 The following legend is applicable only to US Government
 contracts under FAR:
  
                    RESTRICTED RIGHTS LEGEND
  
 Use, reproduction and disclosure by the US Government is
 subject to restrictions as set forth in subparagraphs (a)
 and (c) of the Commercial Computer Software - Restricted
 Rights clause in FAR 52.227-19.
  
 Gaussian, Inc.
 340 Quinnipiac St., Bldg. 40, Wallingford CT 06492
  
  
 ---------------------------------------------------------------
 Warning -- This program may not be used in any manner that
 competes with the business of Gaussian, Inc. or will provide
 assistance to any competitor of Gaussian, Inc.  The licensee
 of this program is prohibited from giving any competitor of
 Gaussian, Inc. access to this program.  By using this program,
 the user acknowledges that Gaussian, Inc. is engaged in the
 business of creating and licensing software in the field of
 computational chemistry and represents and warrants to the
 licensee that it is not a competitor of Gaussian, Inc. and that
 it will not use this program in any manner prohibited above.
 ---------------------------------------------------------------
  

 Cite this work as:
 Gaussian 16, Revision A.03,
 M. J. Frisch, G. W. Trucks, H. B. Schlegel, G. E. Scuseria, 
 M. A. Robb, J. R. Cheeseman, G. Scalmani, V. Barone, 
 G. A. Petersson, H. Nakatsuji, X. Li, M. Caricato, A. V. Marenich, 
 J. Bloino, B. G. Janesko, R. Gomperts, B. Mennucci, H. P. Hratchian, 
 J. V. Ortiz, A. F. Izmaylov, J. L. Sonnenberg, D. Williams-Young, 
 F. Ding, F. Lipparini, F. Egidi, J. Goings, B. Peng, A. Petrone, 
 T. Henderson, D. Ranasinghe, V. G. Zakrzewski, J. Gao, N. Rega, 
 G. Zheng, W. Liang, M. Hada, M. Ehara, K. Toyota, R. Fukuda, 
 J. Hasegawa, M. Ishida, T. Nakajima, Y. Honda, O. Kitao, H. Nakai, 
 T. Vreven, K. Throssell, J. A. Montgomery, Jr., J. E. Peralta, 
 F. Ogliaro, M. J. Bearpark, J. J. Heyd, E. N. Brothers, K. N. Kudin, 
 V. N. Staroverov, T. A. Keith, R. Kobayashi, J. Normand, 
 K. Raghavachari, A. P. Rendell, J. C. Burant, S. S. Iyengar, 
 J. Tomasi, M. Cossi, J. M. Millam, M. Klene, C. Adamo, R. Cammi, 
 J. W. Ochterski, R. L. Martin, K. Morokuma, O. Farkas, 
 J. B. Foresman, and D. J. Fox, Gaussian, Inc., Wallingford CT, 2016.
 
 ******************************************
 Gaussian 16:  ES64L-G16RevA.03 25-Dec-2016
                22-Jan-2019 
 ******************************************
 %nproc=5
 Will use up to    5 processors via shared memory.
 -------------------------------------------
 # M062X/6-311G** force nosymm int=ultrafine
 -------------------------------------------
 1/10=7,30=1,38=1/1,3;
 2/12=2,15=1,17=6,18=5,40=1/2;
 3/5=4,6=6,7=101,11=2,25=1,30=1,71=1,74=-55,75=-5/1,2,3;
 4//1;
 5/5=2,38=5/2;
 6/7=2,8=2,9=2,10=2,28=1/1;
 7/29=1,30=1/1,2,3,16;
 1/10=7,30=1/3;
 99//99;
 -----
 Title
 -----
 Symbolic Z-matrix:
 Charge = -1 Multiplicity = 1
 C                     1.39002   0.00121   0.00127 
 H                     1.05373  -0.83493   0.60148 
 H                     1.0559    0.93827   0.42618 
 H                     1.05612  -0.09953  -1.021 
 Cl                    3.22036  -0.00019  -0.00002 
 Br                   -1.67874  -0.00015  -0.00027 
 

 GradGradGradGradGradGradGradGradGradGradGradGradGradGradGradGradGradGrad
 Berny optimization.
 Initialization pass.
 Trust Radius=3.00D-01 FncErr=1.00D-07 GrdErr=1.00D-07 EigMax=2.50D+02 EigMin=1.00D-04
 Number of steps in this run=      2 maximum allowed number of steps=      2.
 GradGradGradGradGradGradGradGradGradGradGradGradGradGradGradGradGradGrad

                          Input orientation:                          
 ---------------------------------------------------------------------
 Center     Atomic      Atomic             Coordinates (Angstroms)
 Number     Number       Type             X           Y           Z
 ---------------------------------------------------------------------
      1          6           0        1.390020    0.001210    0.001270
      2          1           0        1.053730   -0.834930    0.601480
      3          1           0        1.055900    0.938270    0.426180
      4          1           0        1.056120   -0.099530   -1.021000
      5         17           0        3.220360   -0.000190   -0.000020
      6         35           0       -1.678740   -0.000150   -0.000270
 ---------------------------------------------------------------------
                    Distance matrix (angstroms):
                    1          2          3          4          5
     1  C    0.000000
     2  H    1.082808   0.000000
     3  H    1.081788   1.781845   0.000000
     4  H    1.080127   1.781365   1.780831   0.000000
     5  Cl   1.830341   2.398516   2.397340   2.395037   0.000000
     6  Br   3.068761   2.919821   2.922456   2.920826   4.899100
                    6
     6  Br   0.000000
 Symmetry turned off by external request.
 Stoichiometry    CH3BrCl(1-)
 Framework group  C1[X(CH3BrCl)]
 Deg. of freedom    12
 Full point group                 C1      NOp   1
 Rotational constants (GHZ):         158.0256171           0.8241560           0.8241532
 Standard basis: 6-311G(d,p) (5D, 7F)
   106 basis functions,   195 primitive gaussians,   111 cartesian basis functions
    31 alpha electrons       31 beta electrons
       nuclear repulsion energy       169.9502207839 Hartrees.
 NAtoms=    6 NActive=    6 NUniq=    6 SFac= 1.00D+00 NAtFMM=   60 NAOKFM=F Big=F
 Integral buffers will be    131072 words long.
 Raffenetti 2 integral format.
 Two-electron integral symmetry is turned off.
 One-electron integrals computed using PRISM.
 NBasis=   106 RedAO= T EigKep=  1.10D-02  NBF=   106
 NBsUse=   106 1.00D-06 EigRej= -1.00D+00 NBFU=   106
 ExpMin= 1.03D-01 ExpMax= 4.40D+05 ExpMxC= 1.51D+04 IAcc=3 IRadAn=         5 AccDes= 0.00D+00
 Harris functional with IExCor= 1009 and IRadAn=       5 diagonalized for initial guess.
 HarFok:  IExCor= 1009 AccDes= 0.00D+00 IRadAn=         5 IDoV= 1 UseB2=F ITyADJ=14
 ICtDFT=  3500011 ScaDFX=  1.000000  1.000000  1.000000  1.000000
 FoFCou: FMM=F IPFlag=           0 FMFlag=      100000 FMFlg1=           0
         NFxFlg=           0 DoJE=T BraDBF=F KetDBF=T FulRan=T
         wScrn=  0.000000 ICntrl=       500 IOpCl=  0 I1Cent=   200000004 NGrid=           0
         NMat0=    1 NMatS0=      1 NMatT0=    0 NMatD0=    1 NMtDS0=    0 NMtDT0=    0
 Symmetry not used in FoFCou.
 Keep R1 ints in memory in canonical form, NReq=20756204.
 Requested convergence on RMS density matrix=1.00D-08 within 128 cycles.
 Requested convergence on MAX density matrix=1.00D-06.
 Requested convergence on             energy=1.00D-06.
 No special actions if energy rises.
 Integral accuracy reduced to 1.0D-05 until final iterations.
 Initial convergence to 1.0D-05 achieved.  Increase integral accuracy.
 SCF Done:  E(RM062X) =  -3074.35789123     A.U. after   13 cycles
            NFock= 13  Conv=0.46D-08     -V/T= 2.0013

 **********************************************************************

            Population analysis using the SCF density.

 **********************************************************************

 Alpha  occ. eigenvalues -- -485.03899-102.52942 -63.03117 -56.85702 -56.85698
 Alpha  occ. eigenvalues --  -56.85698 -10.44472  -9.67158  -8.71708  -7.39610
 Alpha  occ. eigenvalues --   -7.39042  -7.39042  -6.53861  -6.53831  -6.53831
 Alpha  occ. eigenvalues --   -2.57048  -2.57038  -2.57038  -2.57014  -2.57014
 Alpha  occ. eigenvalues --   -0.80881  -0.62496  -0.55220  -0.37046  -0.36990
 Alpha  occ. eigenvalues --   -0.32904  -0.23296  -0.23288  -0.09129  -0.09123
 Alpha  occ. eigenvalues --   -0.09121
 Alpha virt. eigenvalues --    0.20398   0.23586   0.28448   0.28470   0.43080
 Alpha virt. eigenvalues --    0.46316   0.46337   0.47016   0.47018   0.53831
 Alpha virt. eigenvalues --    0.56605   0.56610   0.59690   0.71726   0.74441
 Alpha virt. eigenvalues --    0.76492   0.76562   0.86556   0.95108   0.95110
 Alpha virt. eigenvalues --    0.95984   0.95990   1.00112   1.01637   1.01659
 Alpha virt. eigenvalues --    1.08207   1.08208   1.14070   1.25228   1.32526
 Alpha virt. eigenvalues --    1.32541   1.63090   1.65915   1.65948   1.86955
 Alpha virt. eigenvalues --    1.86959   1.88284   2.08003   2.17628   2.17642
 Alpha virt. eigenvalues --    2.26302   2.26483   2.26524   2.39060   2.39079
 Alpha virt. eigenvalues --    2.53011   2.54126   2.59316   2.59432   2.69400
 Alpha virt. eigenvalues --    2.69611   3.07794   3.31518   3.90793   3.91162
 Alpha virt. eigenvalues --    4.56708   4.56710   4.57484   4.57487   4.68204
 Alpha virt. eigenvalues --    6.78725   7.82063   7.82066   7.87033   9.85833
 Alpha virt. eigenvalues --   24.08035  25.69412  25.69425  26.23131  48.37488
 Alpha virt. eigenvalues --  215.91053 290.98606 290.98608 291.034121020.85846
          Condensed to atoms (all electrons):
               1          2          3          4          5          6
     1  C    5.065403   0.404366   0.404460   0.404740   0.140844  -0.027091
     2  H    0.404366   0.504409  -0.020750  -0.020638  -0.058138   0.002202
     3  H    0.404460  -0.020750   0.504447  -0.020627  -0.058200   0.002223
     4  H    0.404740  -0.020638  -0.020627   0.503977  -0.058416   0.002200
     5  Cl   0.140844  -0.058138  -0.058200  -0.058416  17.276762   0.007729
     6  Br  -0.027091   0.002202   0.002223   0.002200   0.007729  35.935198
 Mulliken charges:
               1
     1  C   -0.392721
     2  H    0.188550
     3  H    0.188448
     4  H    0.188764
     5  Cl  -0.250580
     6  Br  -0.922461
 Sum of Mulliken charges =  -1.00000
 Mulliken charges with hydrogens summed into heavy atoms:
               1
     1  C    0.173041
     5  Cl  -0.250580
     6  Br  -0.922461
 Electronic spatial extent (au):  <R**2>=           1164.3992
 Charge=             -1.0000 electrons
 Dipole moment (field-independent basis, Debye):
    X=              3.6476    Y=              0.0025    Z=              0.0029  Tot=              3.6476
 Quadrupole moment (field-independent basis, Debye-Ang):
   XX=            -72.2243   YY=            -43.1900   ZZ=            -43.1877
   XY=              0.0019   XZ=             -0.0047   YZ=             -0.0004
 Traceless Quadrupole moment (field-independent basis, Debye-Ang):
   XX=            -19.3570   YY=              9.6774   ZZ=              9.6796
   XY=              0.0019   XZ=             -0.0047   YZ=             -0.0004
 Octapole moment (field-independent basis, Debye-Ang**2):
  XXX=            -78.7419  YYY=              0.2592  ZZZ=             -0.8816  XYY=            -16.4995
  XXY=              0.0017  XXZ=             -0.0175  XZZ=            -16.4981  YZZ=             -0.2649
  YYZ=              0.8618  XYZ=              0.0019
 Hexadecapole moment (field-independent basis, Debye-Ang**3):
 XXXX=          -1544.7587 YYYY=            -63.7510 ZZZZ=            -63.7367 XXXY=             -0.0491
 XXXZ=             -0.1430 YYYX=              0.2729 YYYZ=              0.0059 ZZZX=             -1.0508
 ZZZY=             -0.0007 XXYY=           -243.1967 XXZZ=           -243.1874 YYZZ=            -21.2431
 XXYZ=              0.0025 YYXZ=              0.9530 ZZXY=             -0.3052
 N-N= 1.699502207839D+02 E-N=-7.694779678267D+03  KE= 3.070232834757D+03
 Calling FoFJK, ICntrl=      2127 FMM=F ISym2X=0 I1Cent= 0 IOpClX= 0 NMat=1 NMatS=1 NMatT=0.
 -------------------------------------------------------------------
 Center     Atomic                   Forces (Hartrees/Bohr)
 Number     Number              X              Y              Z
 -------------------------------------------------------------------
      1        6           0.001640941   -0.000437775    0.001418116
      2        1           0.000275902    0.000606243   -0.000466943
      3        1           0.000013170   -0.000057882   -0.000092118
      4        1          -0.000460380   -0.000069791   -0.000883350
      5       17           0.003954454   -0.000011850    0.000071776
      6       35          -0.005424088   -0.000028945   -0.000047482
 -------------------------------------------------------------------
 Cartesian Forces:  Max     0.005424088 RMS     0.001693665

 GradGradGradGradGradGradGradGradGradGradGradGradGradGradGradGradGradGrad
 Berny optimization.
 Search for a local minimum.
 Step number   1 out of a maximum of    2
 All quantities printed in internal units (Hartrees-Bohrs-Radians)
 Second derivative matrix not updated -- first step.
 The second derivative matrix:
                          X1        Y1        Z1        X2        Y2
           X1           0.54298
           Y1          -0.00005   0.64238
           Z1           0.00032   0.00073   0.64476
           X2          -0.10137  -0.07798   0.05596   0.08487
           Y2          -0.06775  -0.24232   0.11550   0.07211   0.23651
           Z2           0.04860   0.11547  -0.16432  -0.05178  -0.12686
           X3          -0.10127   0.08735   0.03960   0.00823  -0.01098
           Y3           0.07588  -0.28487  -0.09220   0.00864  -0.01210
           Z3           0.03437  -0.09213  -0.12333  -0.01258   0.01805
           X4          -0.10169  -0.00947  -0.09603   0.00827   0.00662
           Y4          -0.00822  -0.08413  -0.02403   0.01474   0.01318
           Z4          -0.08349  -0.02407  -0.32606  -0.00415  -0.00346
           X5          -0.23865   0.00016   0.00015  -0.00000   0.00000
           Y5           0.00014  -0.03106   0.00000  -0.01751   0.00473
           Z5           0.00019   0.00000  -0.03106   0.01256  -0.00323
           X6           0.00000   0.00000   0.00000   0.00000   0.00000
           Y6           0.00000   0.00000   0.00000   0.00000   0.00000
           Z6           0.00000   0.00000   0.00000   0.00000   0.00000
                          Z2        X3        Y3        Z3        X4
           Z2           0.15084
           X3          -0.01068   0.08477
           Y3          -0.01201  -0.08073   0.28311
           Z3           0.01810  -0.03664   0.10121   0.10578
           X4           0.01386   0.00824  -0.00379   0.01485   0.08520
           Y4           0.02662  -0.01529   0.00801  -0.02968   0.00876
           Z4          -0.00715  -0.00119   0.00045  -0.00192   0.08883
           X5          -0.00000   0.00002   0.00001   0.00000  -0.00002
           Y5          -0.00321   0.01965   0.00585   0.00254  -0.00212
           Z5           0.00253   0.00891   0.00255   0.00138  -0.02150
           X6           0.00000   0.00000   0.00000   0.00000   0.00000
           Y6           0.00000   0.00000   0.00000   0.00000   0.00000
           Z6           0.00000   0.00000   0.00000   0.00000   0.00000
                          Y4        Z4        X5        Y5        Z5
           Y4           0.06265
           Z4           0.02642   0.32817
           X5           0.00000   0.00001   0.23865
           Y5           0.00029   0.00066  -0.00017   0.02018
           Z5           0.00068   0.00696  -0.00015   0.00000   0.02019
           X6           0.00000   0.00000   0.00000   0.00000   0.00000
           Y6           0.00000   0.00000   0.00000   0.00000   0.00000
           Z6           0.00000   0.00000   0.00000   0.00000   0.00000
                          X6        Y6        Z6
           X6           1.00000
           Y6           0.00000   1.00000
           Z6           0.00000   0.00000   1.00000
 ITU=  0
     Eigenvalues ---    0.02760   0.02761   0.07027   0.07042   0.09092
     Eigenvalues ---    0.13412   0.13441   0.28894   0.47497   0.76389
     Eigenvalues ---    0.92829   0.93291
 Angle between quadratic step and forces=  29.26 degrees.
 Linear search not attempted -- first point.
 B after Tr=     0.000093   -0.000175   -0.000215
         Rot=    1.000000    0.000000    0.000074    0.000008 Ang=   0.01 deg.
 Variable       Old X    -DE/DX   Delta X   Delta X   Delta X     New X
                                 (Linear)    (Quad)   (Total)
    X1        2.62676   0.00164   0.00000   0.00493   0.00502   2.63178
    Y1        0.00229  -0.00044   0.00000   0.00006  -0.00016   0.00213
    Z1        0.00240   0.00142   0.00000   0.00058   0.00076   0.00316
    X2        1.99126   0.00028   0.00000  -0.00060  -0.00070   1.99056
    Y2       -1.57779   0.00061   0.00000   0.00312   0.00292  -1.57487
    Z2        1.13663  -0.00047   0.00000  -0.00147  -0.00139   1.13524
    X3        1.99536   0.00001   0.00000  -0.00185  -0.00185   1.99351
    Y3        1.77307  -0.00006   0.00000  -0.00175  -0.00195   1.77112
    Z3        0.80536  -0.00009   0.00000  -0.00021  -0.00013   0.80524
    X4        1.99578  -0.00046   0.00000  -0.00596  -0.00559   1.99019
    Y4       -0.18808  -0.00007   0.00000   0.00016  -0.00005  -0.18813
    Z4       -1.92941  -0.00088   0.00000   0.00070   0.00078  -1.92863
    X5        6.08560   0.00395   0.00000   0.01171   0.01180   6.09740
    Y5       -0.00036  -0.00001   0.00000  -0.00026  -0.00053  -0.00089
    Z5       -0.00004   0.00007   0.00000   0.00016   0.00086   0.00082
    X6       -3.17236  -0.00542   0.00000  -0.00878  -0.00868  -3.18104
    Y6       -0.00028  -0.00003   0.00000  -0.00010  -0.00023  -0.00051
    Z6       -0.00051  -0.00005   0.00000  -0.00019  -0.00088  -0.00139
         Item               Value     Threshold  Converged?
 Maximum Force            0.005424     0.000450     NO 
 RMS     Force            0.001694     0.000300     NO 
 Maximum Displacement     0.011799     0.001800     NO 
 RMS     Displacement     0.004029     0.001200     NO 
 Predicted change in Energy=-5.416876D-05
 GradGradGradGradGradGradGradGradGradGradGradGradGradGradGradGradGradGrad

 1\1\GINC-FS\Force\RM062X\6-311G(d,p)\C1H3Br1Cl1(1-)\XINYAN\22-Jan-2019
 \0\\# M062X/6-311G** force nosymm int=ultrafine\\Title\\-1,1\C,1.39002
 ,0.00121,0.00127\H,1.05373,-0.83493,0.60148\H,1.0559,0.93827,0.42618\H
 ,1.05612,-0.09953,-1.021\Cl,3.22036,-0.00019,-0.00002\Br,-1.67874,-0.0
 0015,-0.00027\\Version=ES64L-G16RevA.03\HF=-3074.3578912\RMSD=4.570e-0
 9\RMSF=1.694e-03\Dipole=1.6672894,0.0010815,0.0012732\Quadrupole=-14.3
 914518,7.1948986,7.1965531,0.0014441,-0.0034868,-0.0002622\PG=C01 [X(C
 1H3Br1Cl1)]\\@


 WE DON'T KNOW ONE MILLIONTH OF ONE PERCENT ABOUT
 ANYTHING.
                                     T. A. EDISON.
 Job cpu time:       0 days  0 hours  0 minutes 34.7 seconds.
 Elapsed time:       0 days  0 hours  0 minutes  7.5 seconds.
 File lengths (MBytes):  RWF=     10 Int=      0 D2E=      0 Chk=      2 Scr=      1
 Normal termination of Gaussian 16 at Tue Jan 22 16:56:47 2019.
