 Entering Gaussian System, Link 0=g16
 Input=CH3BrCl-6.gjf
 Output=CH3BrCl-6.log
 Initial command:
 /home/xinyan/g16/l1.exe "/scratch/tmp/Gau-12138.inp" -scrdir="/scratch/tmp/"
 Entering Link 1 = /home/xinyan/g16/l1.exe PID=     12139.
  
 Copyright (c) 1988,1990,1992,1993,1995,1998,2003,2009,2016,
            Gaussian, Inc.  All Rights Reserved.
  
 This is part of the Gaussian(R) 16 program.  It is based on
 the Gaussian(R) 09 system (copyright 2009, Gaussian, Inc.),
 the Gaussian(R) 03 system (copyright 2003, Gaussian, Inc.),
 the Gaussian(R) 98 system (copyright 1998, Gaussian, Inc.),
 the Gaussian(R) 94 system (copyright 1995, Gaussian, Inc.),
 the Gaussian 92(TM) system (copyright 1992, Gaussian, Inc.),
 the Gaussian 90(TM) system (copyright 1990, Gaussian, Inc.),
 the Gaussian 88(TM) system (copyright 1988, Gaussian, Inc.),
 the Gaussian 86(TM) system (copyright 1986, Carnegie Mellon
 University), and the Gaussian 82(TM) system (copyright 1983,
 Carnegie Mellon University). Gaussian is a federally registered
 trademark of Gaussian, Inc.
  
 This software contains proprietary and confidential information,
 including trade secrets, belonging to Gaussian, Inc.
  
 This software is provided under written license and may be
 used, copied, transmitted, or stored only in accord with that
 written license.
  
 The following legend is applicable only to US Government
 contracts under FAR:
  
                    RESTRICTED RIGHTS LEGEND
  
 Use, reproduction and disclosure by the US Government is
 subject to restrictions as set forth in subparagraphs (a)
 and (c) of the Commercial Computer Software - Restricted
 Rights clause in FAR 52.227-19.
  
 Gaussian, Inc.
 340 Quinnipiac St., Bldg. 40, Wallingford CT 06492
  
  
 ---------------------------------------------------------------
 Warning -- This program may not be used in any manner that
 competes with the business of Gaussian, Inc. or will provide
 assistance to any competitor of Gaussian, Inc.  The licensee
 of this program is prohibited from giving any competitor of
 Gaussian, Inc. access to this program.  By using this program,
 the user acknowledges that Gaussian, Inc. is engaged in the
 business of creating and licensing software in the field of
 computational chemistry and represents and warrants to the
 licensee that it is not a competitor of Gaussian, Inc. and that
 it will not use this program in any manner prohibited above.
 ---------------------------------------------------------------
  

 Cite this work as:
 Gaussian 16, Revision A.03,
 M. J. Frisch, G. W. Trucks, H. B. Schlegel, G. E. Scuseria, 
 M. A. Robb, J. R. Cheeseman, G. Scalmani, V. Barone, 
 G. A. Petersson, H. Nakatsuji, X. Li, M. Caricato, A. V. Marenich, 
 J. Bloino, B. G. Janesko, R. Gomperts, B. Mennucci, H. P. Hratchian, 
 J. V. Ortiz, A. F. Izmaylov, J. L. Sonnenberg, D. Williams-Young, 
 F. Ding, F. Lipparini, F. Egidi, J. Goings, B. Peng, A. Petrone, 
 T. Henderson, D. Ranasinghe, V. G. Zakrzewski, J. Gao, N. Rega, 
 G. Zheng, W. Liang, M. Hada, M. Ehara, K. Toyota, R. Fukuda, 
 J. Hasegawa, M. Ishida, T. Nakajima, Y. Honda, O. Kitao, H. Nakai, 
 T. Vreven, K. Throssell, J. A. Montgomery, Jr., J. E. Peralta, 
 F. Ogliaro, M. J. Bearpark, J. J. Heyd, E. N. Brothers, K. N. Kudin, 
 V. N. Staroverov, T. A. Keith, R. Kobayashi, J. Normand, 
 K. Raghavachari, A. P. Rendell, J. C. Burant, S. S. Iyengar, 
 J. Tomasi, M. Cossi, J. M. Millam, M. Klene, C. Adamo, R. Cammi, 
 J. W. Ochterski, R. L. Martin, K. Morokuma, O. Farkas, 
 J. B. Foresman, and D. J. Fox, Gaussian, Inc., Wallingford CT, 2016.
 
 ******************************************
 Gaussian 16:  ES64L-G16RevA.03 25-Dec-2016
                22-Jan-2019 
 ******************************************
 %nproc=5
 Will use up to    5 processors via shared memory.
 -------------------------------------------
 # M062X/6-311G** force nosymm int=ultrafine
 -------------------------------------------
 1/10=7,30=1,38=1/1,3;
 2/12=2,15=1,17=6,18=5,40=1/2;
 3/5=4,6=6,7=101,11=2,25=1,30=1,71=1,74=-55,75=-5/1,2,3;
 4//1;
 5/5=2,38=5/2;
 6/7=2,8=2,9=2,10=2,28=1/1;
 7/29=1,30=1/1,2,3,16;
 1/10=7,30=1/3;
 99//99;
 -----
 Title
 -----
 Symbolic Z-matrix:
 Charge = -1 Multiplicity = 1
 C                     0.72247   0.00026   0.00124 
 H                     0.85624  -0.86672   0.62193 
 H                     0.85602   0.9713    0.44181 
 H                     0.85641  -0.10365  -1.05987 
 Cl                    3.22439  -0.00006  -0.00028 
 Br                   -1.57139  -0.00002  -0.00011 
 

 GradGradGradGradGradGradGradGradGradGradGradGradGradGradGradGradGradGrad
 Berny optimization.
 Initialization pass.
 Trust Radius=3.00D-01 FncErr=1.00D-07 GrdErr=1.00D-07 EigMax=2.50D+02 EigMin=1.00D-04
 Number of steps in this run=      2 maximum allowed number of steps=      2.
 GradGradGradGradGradGradGradGradGradGradGradGradGradGradGradGradGradGrad

                          Input orientation:                          
 ---------------------------------------------------------------------
 Center     Atomic      Atomic             Coordinates (Angstroms)
 Number     Number       Type             X           Y           Z
 ---------------------------------------------------------------------
      1          6           0        0.722470    0.000260    0.001240
      2          1           0        0.856240   -0.866720    0.621930
      3          1           0        0.856020    0.971300    0.441810
      4          1           0        0.856410   -0.103650   -1.059870
      5         17           0        3.224390   -0.000060   -0.000280
      6         35           0       -1.571390   -0.000020   -0.000110
 ---------------------------------------------------------------------
                    Distance matrix (angstroms):
                    1          2          3          4          5
     1  C    0.000000
     2  H    1.074618   0.000000
     3  H    1.074642   1.846825   0.000000
     4  H    1.074566   1.846815   1.846770   0.000000
     5  Cl   2.501920   2.597379   2.597722   2.596303   0.000000
     6  Br   2.293860   2.651696   2.651617   2.651046   4.795780
                    6
     6  Br   0.000000
 Symmetry turned off by external request.
 This structure is nearly, but not quite of a higher symmetry.
 Consider Symm=Loose if the higher symmetry is desired.
 Stoichiometry    CH3BrCl(1-)
 Framework group  C1[X(CH3BrCl)]
 Deg. of freedom    12
 Full point group                 C1      NOp   1
 Rotational constants (GHZ):         147.0236325           0.8887667           0.8887666
 Standard basis: 6-311G(d,p) (5D, 7F)
   106 basis functions,   195 primitive gaussians,   111 cartesian basis functions
    31 alpha electrons       31 beta electrons
       nuclear repulsion energy       176.7438553207 Hartrees.
 NAtoms=    6 NActive=    6 NUniq=    6 SFac= 1.00D+00 NAtFMM=   60 NAOKFM=F Big=F
 Integral buffers will be    131072 words long.
 Raffenetti 2 integral format.
 Two-electron integral symmetry is turned off.
 One-electron integrals computed using PRISM.
 NBasis=   106 RedAO= T EigKep=  1.08D-02  NBF=   106
 NBsUse=   106 1.00D-06 EigRej= -1.00D+00 NBFU=   106
 ExpMin= 1.03D-01 ExpMax= 4.40D+05 ExpMxC= 1.51D+04 IAcc=3 IRadAn=         5 AccDes= 0.00D+00
 Harris functional with IExCor= 1009 and IRadAn=       5 diagonalized for initial guess.
 HarFok:  IExCor= 1009 AccDes= 0.00D+00 IRadAn=         5 IDoV= 1 UseB2=F ITyADJ=14
 ICtDFT=  3500011 ScaDFX=  1.000000  1.000000  1.000000  1.000000
 FoFCou: FMM=F IPFlag=           0 FMFlag=      100000 FMFlg1=           0
         NFxFlg=           0 DoJE=T BraDBF=F KetDBF=T FulRan=T
         wScrn=  0.000000 ICntrl=       500 IOpCl=  0 I1Cent=   200000004 NGrid=           0
         NMat0=    1 NMatS0=      1 NMatT0=    0 NMatD0=    1 NMtDS0=    0 NMtDT0=    0
 Symmetry not used in FoFCou.
 Keep R1 ints in memory in canonical form, NReq=20756192.
 Requested convergence on RMS density matrix=1.00D-08 within 128 cycles.
 Requested convergence on MAX density matrix=1.00D-06.
 Requested convergence on             energy=1.00D-06.
 No special actions if energy rises.
 Integral accuracy reduced to 1.0D-05 until final iterations.
 Initial convergence to 1.0D-05 achieved.  Increase integral accuracy.
 SCF Done:  E(RM062X) =  -3074.33987863     A.U. after   15 cycles
            NFock= 15  Conv=0.39D-08     -V/T= 2.0014

 **********************************************************************

            Population analysis using the SCF density.

 **********************************************************************

 Alpha  occ. eigenvalues -- -485.13978-102.40254 -63.13189 -56.95868 -56.95714
 Alpha  occ. eigenvalues --  -56.95714 -10.45704  -9.54433  -8.81823  -7.26626
 Alpha  occ. eigenvalues --   -7.26470  -7.26470  -6.64336  -6.63739  -6.63738
 Alpha  occ. eigenvalues --   -2.67489  -2.67297  -2.67297  -2.66769  -2.66769
 Alpha  occ. eigenvalues --   -0.69707  -0.64249  -0.60004  -0.36793  -0.36792
 Alpha  occ. eigenvalues --   -0.23961  -0.17408  -0.17407  -0.13988  -0.13988
 Alpha  occ. eigenvalues --   -0.12851
 Alpha virt. eigenvalues --    0.15100   0.22794   0.28900   0.28906   0.45644
 Alpha virt. eigenvalues --    0.46617   0.46618   0.49661   0.49664   0.49743
 Alpha virt. eigenvalues --    0.54533   0.54537   0.62993   0.66975   0.76557
 Alpha virt. eigenvalues --    0.76562   0.79542   0.86279   0.86281   0.88209
 Alpha virt. eigenvalues --    0.88245   0.88250   0.99170   1.15797   1.19460
 Alpha virt. eigenvalues --    1.19462   1.19712   1.19712   1.28494   1.28501
 Alpha virt. eigenvalues --    1.38406   1.59088   1.63349   1.63357   1.68792
 Alpha virt. eigenvalues --    1.93983   1.93984   2.00708   2.11209   2.11211
 Alpha virt. eigenvalues --    2.19344   2.19348   2.27033   2.40641   2.40644
 Alpha virt. eigenvalues --    2.50221   2.60493   2.60497   2.64094   2.77741
 Alpha virt. eigenvalues --    2.77742   3.01728   3.15352   3.89197   3.89206
 Alpha virt. eigenvalues --    4.47220   4.47221   4.51784   4.51788   4.72483
 Alpha virt. eigenvalues --    6.71777   7.73673   7.73675   7.83345   9.88377
 Alpha virt. eigenvalues --   24.08590  25.76070  25.76075  26.03146  48.29678
 Alpha virt. eigenvalues --  215.92834 290.88968 290.88969 290.994441020.78662
          Condensed to atoms (all electrons):
               1          2          3          4          5          6
     1  C    4.976415   0.414690   0.414671   0.414783   0.032183   0.097336
     2  H    0.414690   0.491358  -0.015983  -0.015947  -0.034296  -0.043539
     3  H    0.414671  -0.015983   0.491395  -0.015957  -0.034274  -0.043541
     4  H    0.414783  -0.015947  -0.015957   0.491309  -0.034400  -0.043634
     5  Cl   0.032183  -0.034296  -0.034274  -0.034400  17.825902   0.015879
     6  Br   0.097336  -0.043539  -0.043541  -0.043634   0.015879  35.507676
 Mulliken charges:
               1
     1  C   -0.350078
     2  H    0.203717
     3  H    0.203687
     4  H    0.203845
     5  Cl  -0.770995
     6  Br  -0.490177
 Sum of Mulliken charges =  -1.00000
 Mulliken charges with hydrogens summed into heavy atoms:
               1
     1  C    0.261171
     5  Cl  -0.770995
     6  Br  -0.490177
 Electronic spatial extent (au):  <R**2>=           1101.9967
 Charge=             -1.0000 electrons
 Dipole moment (field-independent basis, Debye):
    X=             -6.9825    Y=              0.0007    Z=              0.0029  Tot=              6.9825
 Quadrupole moment (field-independent basis, Debye-Ang):
   XX=            -90.0813   YY=            -43.0519   ZZ=            -43.0513
   XY=              0.0006   XZ=              0.0046   YZ=             -0.0003
 Traceless Quadrupole moment (field-independent basis, Debye-Ang):
   XX=            -31.3531   YY=             15.6763   ZZ=             15.6769
   XY=              0.0006   XZ=              0.0046   YZ=             -0.0003
 Octapole moment (field-independent basis, Debye-Ang**2):
  XXX=           -200.2766  YYY=              0.3267  ZZZ=             -1.0888  XYY=            -23.3606
  XXY=              0.0004  XXZ=              0.0030  XZZ=            -23.3605  YZZ=             -0.3277
  YYZ=              1.0841  XYZ=             -0.0001
 Hexadecapole moment (field-independent basis, Debye-Ang**3):
 XXXX=          -1804.2419 YYYY=            -63.4207 ZZZZ=            -63.4232 XXXY=              0.0064
 XXXZ=              0.0392 YYYX=              0.2922 YYYZ=              0.0008 ZZZX=             -0.9418
 ZZZY=             -0.0021 XXYY=           -243.3598 XXZZ=           -243.3584 YYZZ=            -21.1374
 XXYZ=             -0.0014 YYXZ=              0.9626 ZZXY=             -0.2878
 N-N= 1.767438553207D+02 E-N=-7.706948197434D+03  KE= 3.070155771828D+03
 Calling FoFJK, ICntrl=      2127 FMM=F ISym2X=0 I1Cent= 0 IOpClX= 0 NMat=1 NMatS=1 NMatT=0.
 -------------------------------------------------------------------
 Center     Atomic                   Forces (Hartrees/Bohr)
 Number     Number              X              Y              Z
 -------------------------------------------------------------------
      1        6          -0.016332885    0.000016481   -0.000016165
      2        1          -0.000213301    0.000309431   -0.000215450
      3        1          -0.000215067   -0.000342049   -0.000157773
      4        1          -0.000207979    0.000036561    0.000376813
      5       17           0.008604264   -0.000010425    0.000002880
      6       35           0.008364968   -0.000009999    0.000009695
 -------------------------------------------------------------------
 Cartesian Forces:  Max     0.016332885 RMS     0.004780356

 GradGradGradGradGradGradGradGradGradGradGradGradGradGradGradGradGradGrad
 Berny optimization.
 Search for a local minimum.
 Step number   1 out of a maximum of    2
 All quantities printed in internal units (Hartrees-Bohrs-Radians)
 Second derivative matrix not updated -- first step.
 The second derivative matrix:
                          X1        Y1        Z1        X2        Y2
           X1           0.28906
           Y1          -0.00007   0.72385
           Z1          -0.00003  -0.00002   0.72391
           X2          -0.07171   0.02921  -0.02092   0.05429
           Y2           0.03007  -0.27653   0.11942  -0.03185   0.26424
           Z2          -0.02153   0.11941  -0.19521   0.02281  -0.13601
           X3          -0.07169  -0.03265  -0.01483   0.00871   0.00549
           Y3          -0.03362  -0.31894  -0.09493  -0.00426  -0.00989
           Z3          -0.01527  -0.09492  -0.15278   0.00675   0.02013
           X4          -0.07171   0.00352   0.03581   0.00871  -0.00372
           Y4           0.00362  -0.11212  -0.02447  -0.00778   0.02066
           Z4           0.03687  -0.02447  -0.35967   0.00186  -0.00249
           X5           0.00000   0.00000   0.00000   0.00000   0.00000
           Y5           0.00000   0.00000   0.00000   0.00000   0.00000
           Z5           0.00000   0.00000   0.00000   0.00000   0.00000
           X6          -0.07395  -0.00001  -0.00003   0.00000   0.00000
           Y6          -0.00001  -0.01626   0.00000   0.01467   0.00152
           Z6          -0.00004   0.00000  -0.01625  -0.01050  -0.00105
                          Z2        X3        Y3        Z3        X4
           Z2           0.17163
           X3           0.00580   0.05427
           Y3          -0.01290   0.03561   0.31255
           Z3           0.02667   0.01617   0.10811   0.12331
           X4          -0.00707   0.00871   0.00227  -0.00765   0.05431
           Y4           0.03054   0.00799   0.01440  -0.03415  -0.00383
           Z4          -0.00388   0.00032  -0.00112   0.00238  -0.03904
           X5           0.00000   0.00000   0.00000   0.00000   0.00000
           Y5           0.00000   0.00000   0.00000   0.00000   0.00000
           Z5           0.00000   0.00000   0.00000   0.00000   0.00000
           X6          -0.00000   0.00001  -0.00000  -0.00000  -0.00001
           Y6          -0.00104  -0.01643   0.00189   0.00083   0.00176
           Z6           0.00079  -0.00745   0.00083   0.00042   0.01796
                          Y4        Z4        X5        Y5        Z5
           Y4           0.07700
           Z4           0.02788   0.35893
           X5           0.00000   0.00000   1.00000
           Y5           0.00000   0.00000   0.00000   1.00000
           Z5           0.00000   0.00000   0.00000   0.00000   1.00000
           X6          -0.00000  -0.00000   0.00000   0.00000   0.00000
           Y6           0.00007   0.00022   0.00000   0.00000   0.00000
           Z6           0.00022   0.00225   0.00000   0.00000   0.00000
                          X6        Y6        Z6
           X6           0.07395
           Y6           0.00001   0.01279
           Z6           0.00004  -0.00000   0.01279
 ITU=  0
     Eigenvalues ---    0.04187   0.04740   0.04740   0.09304   0.09304
     Eigenvalues ---    0.16203   0.16205   0.29082   0.43265   0.73059
     Eigenvalues ---    1.02959   1.02973
 Angle between quadratic step and forces=  53.38 degrees.
 Linear search not attempted -- first point.
 B after Tr=     0.045578   -0.000028    0.000051
         Rot=    1.000000    0.000000   -0.000005    0.000000 Ang=   0.00 deg.
 Variable       Old X    -DE/DX   Delta X   Delta X   Delta X     New X
                                 (Linear)    (Quad)   (Total)
    X1        1.36527  -0.01633   0.00000  -0.09693  -0.05135   1.31392
    Y1        0.00049   0.00002   0.00000   0.00007   0.00004   0.00053
    Z1        0.00234  -0.00002   0.00000  -0.00008  -0.00005   0.00230
    X2        1.61806  -0.00021   0.00000  -0.08839  -0.04280   1.57526
    Y2       -1.63786   0.00031   0.00000   0.00163   0.00160  -1.63627
    Z2        1.17528  -0.00022   0.00000  -0.00118  -0.00115   1.17413
    X3        1.61764  -0.00022   0.00000  -0.08839  -0.04280   1.57484
    Y3        1.83549  -0.00034   0.00000  -0.00169  -0.00172   1.83377
    Z3        0.83490  -0.00016   0.00000  -0.00085  -0.00082   0.83408
    X4        1.61838  -0.00021   0.00000  -0.08825  -0.04269   1.57569
    Y4       -0.19587   0.00004   0.00000   0.00024   0.00021  -0.19566
    Z4       -2.00286   0.00038   0.00000   0.00184   0.00188  -2.00099
    X5        6.09321   0.00860   0.00000   0.01173   0.05730   6.15052
    Y5       -0.00011  -0.00001   0.00000  -0.00005  -0.00008  -0.00019
    Z5       -0.00053   0.00000   0.00000   0.00001  -0.00001  -0.00054
    X6       -2.96950   0.00836   0.00000   0.07676   0.12234  -2.84716
    Y6       -0.00004  -0.00001   0.00000  -0.00002  -0.00005  -0.00009
    Z6       -0.00021   0.00001   0.00000   0.00006   0.00015  -0.00006
         Item               Value     Threshold  Converged?
 Maximum Force            0.016333     0.000450     NO 
 RMS     Force            0.004780     0.000300     NO 
 Maximum Displacement     0.122336     0.001800     NO 
 RMS     Displacement     0.038285     0.001200     NO 
 Predicted change in Energy=-3.808524D-04
 GradGradGradGradGradGradGradGradGradGradGradGradGradGradGradGradGradGrad

 1\1\GINC-FS\Force\RM062X\6-311G(d,p)\C1H3Br1Cl1(1-)\XINYAN\22-Jan-2019
 \0\\# M062X/6-311G** force nosymm int=ultrafine\\Title\\-1,1\C,0.72247
 ,0.00026,0.00124\H,0.85624,-0.86672,0.62193\H,0.85602,0.9713,0.44181\H
 ,0.85641,-0.10365,-1.05987\Cl,3.22439,-0.00006,-0.00028\Br,-1.57139,-0
 .00002,-0.00011\\Version=ES64L-G16RevA.03\HF=-3074.3398786\RMSD=3.868e
 -09\RMSF=4.780e-03\Dipole=-2.5389731,0.0003154,0.0012398\Quadrupole=-2
 3.3102965,11.6549168,11.6553797,0.0004517,0.0034343,-0.0002353\PG=C01 
 [X(C1H3Br1Cl1)]\\@


 YOU KNOW YOU'VE SPOKEN TOO LONG WHEN THE AUDIENCE STOPS LOOKING AT
 THEIR WATCHES AND STARTS SHAKING THEM.
 Job cpu time:       0 days  0 hours  0 minutes 54.2 seconds.
 Elapsed time:       0 days  0 hours  0 minutes 11.5 seconds.
 File lengths (MBytes):  RWF=     10 Int=      0 D2E=      0 Chk=      2 Scr=      1
 Normal termination of Gaussian 16 at Tue Jan 22 16:49:39 2019.
