 Entering Gaussian System, Link 0=g16
 Input=CH3BrCl-30.gjf
 Output=CH3BrCl-30.log
 Initial command:
 /home/xinyan/g16/l1.exe "/scratch/tmp/Gau-13777.inp" -scrdir="/scratch/tmp/"
 Entering Link 1 = /home/xinyan/g16/l1.exe PID=     13778.
  
 Copyright (c) 1988,1990,1992,1993,1995,1998,2003,2009,2016,
            Gaussian, Inc.  All Rights Reserved.
  
 This is part of the Gaussian(R) 16 program.  It is based on
 the Gaussian(R) 09 system (copyright 2009, Gaussian, Inc.),
 the Gaussian(R) 03 system (copyright 2003, Gaussian, Inc.),
 the Gaussian(R) 98 system (copyright 1998, Gaussian, Inc.),
 the Gaussian(R) 94 system (copyright 1995, Gaussian, Inc.),
 the Gaussian 92(TM) system (copyright 1992, Gaussian, Inc.),
 the Gaussian 90(TM) system (copyright 1990, Gaussian, Inc.),
 the Gaussian 88(TM) system (copyright 1988, Gaussian, Inc.),
 the Gaussian 86(TM) system (copyright 1986, Carnegie Mellon
 University), and the Gaussian 82(TM) system (copyright 1983,
 Carnegie Mellon University). Gaussian is a federally registered
 trademark of Gaussian, Inc.
  
 This software contains proprietary and confidential information,
 including trade secrets, belonging to Gaussian, Inc.
  
 This software is provided under written license and may be
 used, copied, transmitted, or stored only in accord with that
 written license.
  
 The following legend is applicable only to US Government
 contracts under FAR:
  
                    RESTRICTED RIGHTS LEGEND
  
 Use, reproduction and disclosure by the US Government is
 subject to restrictions as set forth in subparagraphs (a)
 and (c) of the Commercial Computer Software - Restricted
 Rights clause in FAR 52.227-19.
  
 Gaussian, Inc.
 340 Quinnipiac St., Bldg. 40, Wallingford CT 06492
  
  
 ---------------------------------------------------------------
 Warning -- This program may not be used in any manner that
 competes with the business of Gaussian, Inc. or will provide
 assistance to any competitor of Gaussian, Inc.  The licensee
 of this program is prohibited from giving any competitor of
 Gaussian, Inc. access to this program.  By using this program,
 the user acknowledges that Gaussian, Inc. is engaged in the
 business of creating and licensing software in the field of
 computational chemistry and represents and warrants to the
 licensee that it is not a competitor of Gaussian, Inc. and that
 it will not use this program in any manner prohibited above.
 ---------------------------------------------------------------
  

 Cite this work as:
 Gaussian 16, Revision A.03,
 M. J. Frisch, G. W. Trucks, H. B. Schlegel, G. E. Scuseria, 
 M. A. Robb, J. R. Cheeseman, G. Scalmani, V. Barone, 
 G. A. Petersson, H. Nakatsuji, X. Li, M. Caricato, A. V. Marenich, 
 J. Bloino, B. G. Janesko, R. Gomperts, B. Mennucci, H. P. Hratchian, 
 J. V. Ortiz, A. F. Izmaylov, J. L. Sonnenberg, D. Williams-Young, 
 F. Ding, F. Lipparini, F. Egidi, J. Goings, B. Peng, A. Petrone, 
 T. Henderson, D. Ranasinghe, V. G. Zakrzewski, J. Gao, N. Rega, 
 G. Zheng, W. Liang, M. Hada, M. Ehara, K. Toyota, R. Fukuda, 
 J. Hasegawa, M. Ishida, T. Nakajima, Y. Honda, O. Kitao, H. Nakai, 
 T. Vreven, K. Throssell, J. A. Montgomery, Jr., J. E. Peralta, 
 F. Ogliaro, M. J. Bearpark, J. J. Heyd, E. N. Brothers, K. N. Kudin, 
 V. N. Staroverov, T. A. Keith, R. Kobayashi, J. Normand, 
 K. Raghavachari, A. P. Rendell, J. C. Burant, S. S. Iyengar, 
 J. Tomasi, M. Cossi, J. M. Millam, M. Klene, C. Adamo, R. Cammi, 
 J. W. Ochterski, R. L. Martin, K. Morokuma, O. Farkas, 
 J. B. Foresman, and D. J. Fox, Gaussian, Inc., Wallingford CT, 2016.
 
 ******************************************
 Gaussian 16:  ES64L-G16RevA.03 25-Dec-2016
                22-Jan-2019 
 ******************************************
 %nproc=5
 Will use up to    5 processors via shared memory.
 -------------------------------------------
 # M062X/6-311G** force nosymm int=ultrafine
 -------------------------------------------
 1/10=7,30=1,38=1/1,3;
 2/12=2,15=1,17=6,18=5,40=1/2;
 3/5=4,6=6,7=101,11=2,25=1,30=1,71=1,74=-55,75=-5/1,2,3;
 4//1;
 5/5=2,38=5/2;
 6/7=2,8=2,9=2,10=2,28=1/1;
 7/29=1,30=1/1,2,3,16;
 1/10=7,30=1/3;
 99//99;
 -----
 Title
 -----
 Symbolic Z-matrix:
 Charge = -1 Multiplicity = 1
 C                     0.90317   0.00013   0.00131 
 H                     0.86992  -0.87254   0.62589 
 H                     0.86971   0.97732   0.44489 
 H                     0.86964  -0.10432  -1.06667 
 Cl                    3.19225  -0.00003  -0.00029 
 Br                   -1.58515  -0.00001  -0.00012 
 

 GradGradGradGradGradGradGradGradGradGradGradGradGradGradGradGradGradGrad
 Berny optimization.
 Initialization pass.
 Trust Radius=3.00D-01 FncErr=1.00D-07 GrdErr=1.00D-07 EigMax=2.50D+02 EigMin=1.00D-04
 Number of steps in this run=      2 maximum allowed number of steps=      2.
 GradGradGradGradGradGradGradGradGradGradGradGradGradGradGradGradGradGrad

                          Input orientation:                          
 ---------------------------------------------------------------------
 Center     Atomic      Atomic             Coordinates (Angstroms)
 Number     Number       Type             X           Y           Z
 ---------------------------------------------------------------------
      1          6           0        0.903170    0.000130    0.001310
      2          1           0        0.869920   -0.872540    0.625890
      3          1           0        0.869710    0.977320    0.444890
      4          1           0        0.869640   -0.104320   -1.066670
      5         17           0        3.192250   -0.000030   -0.000290
      6         35           0       -1.585150   -0.000010   -0.000120
 ---------------------------------------------------------------------
                    Distance matrix (angstroms):
                    1          2          3          4          5
     1  C    0.000000
     2  H    1.073666   0.000000
     3  H    1.073677   1.858694   0.000000
     4  H    1.073599   1.858742   1.858698   0.000000
     5  Cl   2.289081   2.558631   2.558826   2.557843   0.000000
     6  Br   2.488320   2.679658   2.679467   2.678508   4.777400
                    6
     6  Br   0.000000
 Symmetry turned off by external request.
 This structure is nearly, but not quite of a higher symmetry.
 Consider Symm=Loose if the higher symmetry is desired.
 Stoichiometry    CH3BrCl(1-)
 Framework group  C1[X(CH3BrCl)]
 Deg. of freedom    12
 Full point group                 C1      NOp   1
 Rotational constants (GHZ):         145.1457605           0.8890263           0.8890261
 Standard basis: 6-311G(d,p) (5D, 7F)
   106 basis functions,   195 primitive gaussians,   111 cartesian basis functions
    31 alpha electrons       31 beta electrons
       nuclear repulsion energy       175.1589284325 Hartrees.
 NAtoms=    6 NActive=    6 NUniq=    6 SFac= 1.00D+00 NAtFMM=   60 NAOKFM=F Big=F
 Integral buffers will be    131072 words long.
 Raffenetti 2 integral format.
 Two-electron integral symmetry is turned off.
 One-electron integrals computed using PRISM.
 NBasis=   106 RedAO= T EigKep=  1.10D-02  NBF=   106
 NBsUse=   106 1.00D-06 EigRej= -1.00D+00 NBFU=   106
 ExpMin= 1.03D-01 ExpMax= 4.40D+05 ExpMxC= 1.51D+04 IAcc=3 IRadAn=         5 AccDes= 0.00D+00
 Harris functional with IExCor= 1009 and IRadAn=       5 diagonalized for initial guess.
 HarFok:  IExCor= 1009 AccDes= 0.00D+00 IRadAn=         5 IDoV= 1 UseB2=F ITyADJ=14
 ICtDFT=  3500011 ScaDFX=  1.000000  1.000000  1.000000  1.000000
 FoFCou: FMM=F IPFlag=           0 FMFlag=      100000 FMFlg1=           0
         NFxFlg=           0 DoJE=T BraDBF=F KetDBF=T FulRan=T
         wScrn=  0.000000 ICntrl=       500 IOpCl=  0 I1Cent=   200000004 NGrid=           0
         NMat0=    1 NMatS0=      1 NMatT0=    0 NMatD0=    1 NMtDS0=    0 NMtDT0=    0
 Symmetry not used in FoFCou.
 Keep R1 ints in memory in canonical form, NReq=20756192.
 Requested convergence on RMS density matrix=1.00D-08 within 128 cycles.
 Requested convergence on MAX density matrix=1.00D-06.
 Requested convergence on             energy=1.00D-06.
 No special actions if energy rises.
 Integral accuracy reduced to 1.0D-05 until final iterations.
 Initial convergence to 1.0D-05 achieved.  Increase integral accuracy.
 SCF Done:  E(RM062X) =  -3074.33786491     A.U. after   14 cycles
            NFock= 14  Conv=0.45D-08     -V/T= 2.0014

 **********************************************************************

            Population analysis using the SCF density.

 **********************************************************************

 Alpha  occ. eigenvalues -- -485.10013-102.44549 -63.09240 -56.91879 -56.91786
 Alpha  occ. eigenvalues --  -56.91786 -10.46014  -9.58669  -8.77863  -7.30956
 Alpha  occ. eigenvalues --   -7.30647  -7.30647  -6.60234  -6.59860  -6.59860
 Alpha  occ. eigenvalues --   -2.63398  -2.63280  -2.63280  -2.62953  -2.62953
 Alpha  occ. eigenvalues --   -0.70361  -0.64578  -0.59271  -0.37043  -0.37040
 Alpha  occ. eigenvalues --   -0.23573  -0.17491  -0.17490  -0.14218  -0.14218
 Alpha  occ. eigenvalues --   -0.13049
 Alpha virt. eigenvalues --    0.15252   0.22484   0.28793   0.28799   0.46425
 Alpha virt. eigenvalues --    0.47132   0.47133   0.48054   0.50350   0.50351
 Alpha virt. eigenvalues --    0.53782   0.53786   0.65546   0.67134   0.76759
 Alpha virt. eigenvalues --    0.76765   0.77835   0.89768   0.89771   0.90030
 Alpha virt. eigenvalues --    0.90504   0.90507   0.96679   1.14768   1.14772
 Alpha virt. eigenvalues --    1.16042   1.16042   1.21065   1.29154   1.29161
 Alpha virt. eigenvalues --    1.33426   1.58325   1.62636   1.62646   1.66576
 Alpha virt. eigenvalues --    1.98617   2.00383   2.00388   2.08810   2.08825
 Alpha virt. eigenvalues --    2.17774   2.17777   2.27638   2.37571   2.37573
 Alpha virt. eigenvalues --    2.48333   2.59949   2.59952   2.66072   2.79401
 Alpha virt. eigenvalues --    2.79401   3.00224   3.14795   3.90265   3.90271
 Alpha virt. eigenvalues --    4.50969   4.50971   4.53007   4.53011   4.70746
 Alpha virt. eigenvalues --    6.75296   7.76875   7.76878   7.84540   9.86120
 Alpha virt. eigenvalues --   24.08451  25.72684  25.72687  26.05894  48.33393
 Alpha virt. eigenvalues --  215.90817 290.92762 290.92763 291.009201020.82325
          Condensed to atoms (all electrons):
               1          2          3          4          5          6
     1  C    4.985301   0.414301   0.414296   0.414417   0.074675   0.047477
     2  H    0.414301   0.496109  -0.016394  -0.016351  -0.046672  -0.035844
     3  H    0.414296  -0.016394   0.496118  -0.016357  -0.046656  -0.035855
     4  H    0.414417  -0.016351  -0.016357   0.496060  -0.046793  -0.035973
     5  Cl   0.074675  -0.046672  -0.046656  -0.046793  17.651216   0.017354
     6  Br   0.047477  -0.035844  -0.035855  -0.035973   0.017354  35.703944
 Mulliken charges:
               1
     1  C   -0.350467
     2  H    0.204851
     3  H    0.204847
     4  H    0.204997
     5  Cl  -0.603124
     6  Br  -0.661103
 Sum of Mulliken charges =  -1.00000
 Mulliken charges with hydrogens summed into heavy atoms:
               1
     1  C    0.264228
     5  Cl  -0.603124
     6  Br  -0.661103
 Electronic spatial extent (au):  <R**2>=           1097.1464
 Charge=             -1.0000 electrons
 Dipole moment (field-independent basis, Debye):
    X=             -3.2202    Y=              0.0004    Z=              0.0031  Tot=              3.2202
 Quadrupole moment (field-independent basis, Debye-Ang):
   XX=            -84.0324   YY=            -43.0764   ZZ=            -43.0755
   XY=             -0.0002   XZ=              0.0037   YZ=             -0.0003
 Traceless Quadrupole moment (field-independent basis, Debye-Ang):
   XX=            -27.3043   YY=             13.6517   ZZ=             13.6526
   XY=             -0.0002   XZ=              0.0037   YZ=             -0.0003
 Octapole moment (field-independent basis, Debye-Ang**2):
  XXX=           -155.8898  YYY=              0.3349  ZZZ=             -1.1168  XYY=            -20.6316
  XXY=             -0.0003  XXZ=              0.0004  XZZ=            -20.6323  YZZ=             -0.3353
  YYZ=              1.1116  XYZ=             -0.0000
 Hexadecapole moment (field-independent basis, Debye-Ang**3):
 XXXX=          -1673.2496 YYYY=            -63.6011 ZZZZ=            -63.6036 XXXY=             -0.0019
 XXXZ=              0.0092 YYYX=              0.3022 YYYZ=              0.0004 ZZZX=             -0.9946
 ZZZY=             -0.0020 XXYY=           -238.3809 XXZZ=           -238.3809 YYZZ=            -21.1971
 XXYZ=             -0.0014 YYXZ=              1.0044 ZZXY=             -0.3017
 N-N= 1.751589284325D+02 E-N=-7.704420577886D+03  KE= 3.070145971987D+03
 Calling FoFJK, ICntrl=      2127 FMM=F ISym2X=0 I1Cent= 0 IOpClX= 0 NMat=1 NMatS=1 NMatT=0.
 -------------------------------------------------------------------
 Center     Atomic                   Forces (Hartrees/Bohr)
 Number     Number              X              Y              Z
 -------------------------------------------------------------------
      1        6           0.007129391    0.000015181   -0.000012388
      2        1           0.000042082    0.000295693   -0.000208706
      3        1           0.000042331   -0.000332115   -0.000156258
      4        1           0.000037896    0.000030384    0.000360317
      5       17          -0.003535286   -0.000003940    0.000018663
      6       35          -0.003716414   -0.000005203   -0.000001628
 -------------------------------------------------------------------
 Cartesian Forces:  Max     0.007129391 RMS     0.002075525

 GradGradGradGradGradGradGradGradGradGradGradGradGradGradGradGradGradGrad
 Berny optimization.
 Search for a local minimum.
 Step number   1 out of a maximum of    2
 All quantities printed in internal units (Hartrees-Bohrs-Radians)
 Second derivative matrix not updated -- first step.
 The second derivative matrix:
                          X1        Y1        Z1        X2        Y2
           X1           0.29338
           Y1          -0.00006   0.73996
           Z1          -0.00001  -0.00001   0.74006
           X2          -0.07157   0.00363  -0.00257   0.05005
           Y2          -0.00745  -0.28265   0.11905   0.00799   0.26923
           Z2           0.00536   0.11904  -0.20151  -0.00574  -0.13716
           X3          -0.07157  -0.00400  -0.00181   0.01075  -0.00148
           Y3           0.00840  -0.32486  -0.09467   0.00116  -0.00940
           Z3           0.00383  -0.09466  -0.15927  -0.00175   0.02059
           X4          -0.07156   0.00043   0.00435   0.01075   0.00094
           Y4          -0.00089  -0.11871  -0.02437   0.00204   0.02242
           Z4          -0.00921  -0.02437  -0.36554  -0.00054  -0.00222
           X5          -0.07868   0.00000   0.00005   0.00001  -0.00000
           Y5           0.00000  -0.01375   0.00000  -0.01482   0.00039
           Z5           0.00005   0.00000  -0.01374   0.01061  -0.00025
           X6           0.00000   0.00000   0.00000   0.00000   0.00000
           Y6           0.00000   0.00000   0.00000   0.00000   0.00000
           Z6           0.00000   0.00000   0.00000   0.00000   0.00000
                          Z2        X3        Y3        Z3        X4
           Z2           0.17576
           X3          -0.00149   0.05006
           Y3          -0.01307  -0.00901   0.31787
           Z3           0.02867  -0.00411   0.10907   0.12710
           X4           0.00188   0.01076  -0.00055   0.00203   0.05006
           Y4           0.03143  -0.00210   0.01590  -0.03519   0.00096
           Z4          -0.00313  -0.00013  -0.00154   0.00338   0.00988
           X5           0.00000   0.00001   0.00000   0.00000  -0.00001
           Y5          -0.00024   0.01660   0.00048   0.00019  -0.00177
           Z5           0.00021   0.00753   0.00020   0.00012  -0.01814
           X6           0.00000   0.00000   0.00000   0.00000   0.00000
           Y6           0.00000   0.00000   0.00000   0.00000   0.00000
           Z6           0.00000   0.00000   0.00000   0.00000   0.00000
                          Y4        Z4        X5        Y5        Z5
           Y4           0.08035
           Z4           0.02808   0.36473
           X5           0.00000   0.00000   0.07868
           Y5           0.00004   0.00005  -0.00000   0.01284
           Z5           0.00005   0.00056  -0.00005  -0.00000   0.01284
           X6           0.00000   0.00000   0.00000   0.00000   0.00000
           Y6           0.00000   0.00000   0.00000   0.00000   0.00000
           Z6           0.00000   0.00000   0.00000   0.00000   0.00000
                          X6        Y6        Z6
           X6           1.00000
           Y6           0.00000   1.00000
           Z6           0.00000   0.00000   1.00000
 ITU=  0
     Eigenvalues ---    0.03834   0.03834   0.05277   0.05448   0.05449
     Eigenvalues ---    0.16547   0.16550   0.34435   0.37722   0.45194
     Eigenvalues ---    1.03718   1.03734
 Angle between quadratic step and forces=  50.71 degrees.
 Linear search not attempted -- first point.
 B after Tr=    -0.013452   -0.000032    0.000049
         Rot=    1.000000    0.000000    0.000001   -0.000001 Ang=   0.00 deg.
 Variable       Old X    -DE/DX   Delta X   Delta X   Delta X     New X
                                 (Linear)    (Quad)   (Total)
    X1        1.70674   0.00713   0.00000   0.03340   0.01995   1.72669
    Y1        0.00025   0.00002   0.00000   0.00007   0.00004   0.00029
    Z1        0.00248  -0.00001   0.00000  -0.00012  -0.00006   0.00241
    X2        1.64391   0.00004   0.00000   0.02841   0.01496   1.65887
    Y2       -1.64886   0.00030   0.00000   0.00096   0.00094  -1.64793
    Z2        1.18276  -0.00021   0.00000  -0.00077  -0.00071   1.18205
    X3        1.64351   0.00004   0.00000   0.02845   0.01499   1.65850
    Y3        1.84687  -0.00033   0.00000  -0.00096  -0.00099   1.84588
    Z3        0.84072  -0.00016   0.00000  -0.00057  -0.00052   0.84020
    X4        1.64338   0.00004   0.00000   0.02835   0.01490   1.65828
    Y4       -0.19714   0.00003   0.00000   0.00016   0.00013  -0.19701
    Z4       -2.01571   0.00036   0.00000   0.00100   0.00105  -2.01466
    X5        6.03248  -0.00354   0.00000  -0.03188  -0.04533   5.98715
    Y5       -0.00006  -0.00000   0.00000  -0.00004  -0.00005  -0.00011
    Z5       -0.00055   0.00002   0.00000   0.00010   0.00016  -0.00039
    X6       -2.99550  -0.00372   0.00000  -0.00601  -0.01947  -3.01496
    Y6       -0.00002  -0.00001   0.00000  -0.00003  -0.00007  -0.00009
    Z6       -0.00023  -0.00000   0.00000   0.00004   0.00008  -0.00015
         Item               Value     Threshold  Converged?
 Maximum Force            0.007129     0.000450     NO 
 RMS     Force            0.002076     0.000300     NO 
 Maximum Displacement     0.045333     0.001800     NO 
 RMS     Displacement     0.013957     0.001200     NO 
 Predicted change in Energy=-1.756075D-05
 GradGradGradGradGradGradGradGradGradGradGradGradGradGradGradGradGradGrad

 1\1\GINC-FS\Force\RM062X\6-311G(d,p)\C1H3Br1Cl1(1-)\XINYAN\22-Jan-2019
 \0\\# M062X/6-311G** force nosymm int=ultrafine\\Title\\-1,1\C,0.90317
 ,0.00013,0.00131\H,0.86992,-0.87254,0.62589\H,0.86971,0.97732,0.44489\
 H,0.86964,-0.10432,-1.06667\Cl,3.19225,-0.00003,-0.00029\Br,-1.58515,-
 0.00001,-0.00012\\Version=ES64L-G16RevA.03\HF=-3074.3378649\RMSD=4.522
 e-09\RMSF=2.076e-03\Dipole=-1.055746,0.0001795,0.0012967\Quadrupole=-2
 0.3000681,10.1496982,10.1503699,-0.0001131,0.0027406,-0.0001878\PG=C01
  [X(C1H3Br1Cl1)]\\@


 Ideas are like rabbits. You get a couple and learn
 how to handle them, and pretty soon you have a dozen.
                                    -- John Steinbeck
 Job cpu time:       0 days  0 hours  0 minutes 40.1 seconds.
 Elapsed time:       0 days  0 hours  0 minutes  8.8 seconds.
 File lengths (MBytes):  RWF=     10 Int=      0 D2E=      0 Chk=      2 Scr=      1
 Normal termination of Gaussian 16 at Tue Jan 22 16:53:29 2019.
