 Entering Gaussian System, Link 0=g16
 Input=CH3BrCl-23.gjf
 Output=CH3BrCl-23.log
 Initial command:
 /home/xinyan/g16/l1.exe "/scratch/tmp/Gau-13284.inp" -scrdir="/scratch/tmp/"
 Entering Link 1 = /home/xinyan/g16/l1.exe PID=     13285.
  
 Copyright (c) 1988,1990,1992,1993,1995,1998,2003,2009,2016,
            Gaussian, Inc.  All Rights Reserved.
  
 This is part of the Gaussian(R) 16 program.  It is based on
 the Gaussian(R) 09 system (copyright 2009, Gaussian, Inc.),
 the Gaussian(R) 03 system (copyright 2003, Gaussian, Inc.),
 the Gaussian(R) 98 system (copyright 1998, Gaussian, Inc.),
 the Gaussian(R) 94 system (copyright 1995, Gaussian, Inc.),
 the Gaussian 92(TM) system (copyright 1992, Gaussian, Inc.),
 the Gaussian 90(TM) system (copyright 1990, Gaussian, Inc.),
 the Gaussian 88(TM) system (copyright 1988, Gaussian, Inc.),
 the Gaussian 86(TM) system (copyright 1986, Carnegie Mellon
 University), and the Gaussian 82(TM) system (copyright 1983,
 Carnegie Mellon University). Gaussian is a federally registered
 trademark of Gaussian, Inc.
  
 This software contains proprietary and confidential information,
 including trade secrets, belonging to Gaussian, Inc.
  
 This software is provided under written license and may be
 used, copied, transmitted, or stored only in accord with that
 written license.
  
 The following legend is applicable only to US Government
 contracts under FAR:
  
                    RESTRICTED RIGHTS LEGEND
  
 Use, reproduction and disclosure by the US Government is
 subject to restrictions as set forth in subparagraphs (a)
 and (c) of the Commercial Computer Software - Restricted
 Rights clause in FAR 52.227-19.
  
 Gaussian, Inc.
 340 Quinnipiac St., Bldg. 40, Wallingford CT 06492
  
  
 ---------------------------------------------------------------
 Warning -- This program may not be used in any manner that
 competes with the business of Gaussian, Inc. or will provide
 assistance to any competitor of Gaussian, Inc.  The licensee
 of this program is prohibited from giving any competitor of
 Gaussian, Inc. access to this program.  By using this program,
 the user acknowledges that Gaussian, Inc. is engaged in the
 business of creating and licensing software in the field of
 computational chemistry and represents and warrants to the
 licensee that it is not a competitor of Gaussian, Inc. and that
 it will not use this program in any manner prohibited above.
 ---------------------------------------------------------------
  

 Cite this work as:
 Gaussian 16, Revision A.03,
 M. J. Frisch, G. W. Trucks, H. B. Schlegel, G. E. Scuseria, 
 M. A. Robb, J. R. Cheeseman, G. Scalmani, V. Barone, 
 G. A. Petersson, H. Nakatsuji, X. Li, M. Caricato, A. V. Marenich, 
 J. Bloino, B. G. Janesko, R. Gomperts, B. Mennucci, H. P. Hratchian, 
 J. V. Ortiz, A. F. Izmaylov, J. L. Sonnenberg, D. Williams-Young, 
 F. Ding, F. Lipparini, F. Egidi, J. Goings, B. Peng, A. Petrone, 
 T. Henderson, D. Ranasinghe, V. G. Zakrzewski, J. Gao, N. Rega, 
 G. Zheng, W. Liang, M. Hada, M. Ehara, K. Toyota, R. Fukuda, 
 J. Hasegawa, M. Ishida, T. Nakajima, Y. Honda, O. Kitao, H. Nakai, 
 T. Vreven, K. Throssell, J. A. Montgomery, Jr., J. E. Peralta, 
 F. Ogliaro, M. J. Bearpark, J. J. Heyd, E. N. Brothers, K. N. Kudin, 
 V. N. Staroverov, T. A. Keith, R. Kobayashi, J. Normand, 
 K. Raghavachari, A. P. Rendell, J. C. Burant, S. S. Iyengar, 
 J. Tomasi, M. Cossi, J. M. Millam, M. Klene, C. Adamo, R. Cammi, 
 J. W. Ochterski, R. L. Martin, K. Morokuma, O. Farkas, 
 J. B. Foresman, and D. J. Fox, Gaussian, Inc., Wallingford CT, 2016.
 
 ******************************************
 Gaussian 16:  ES64L-G16RevA.03 25-Dec-2016
                22-Jan-2019 
 ******************************************
 %nproc=5
 Will use up to    5 processors via shared memory.
 -------------------------------------------
 # M062X/6-311G** force nosymm int=ultrafine
 -------------------------------------------
 1/10=7,30=1,38=1/1,3;
 2/12=2,15=1,17=6,18=5,40=1/2;
 3/5=4,6=6,7=101,11=2,25=1,30=1,71=1,74=-55,75=-5/1,2,3;
 4//1;
 5/5=2,38=5/2;
 6/7=2,8=2,9=2,10=2,28=1/1;
 7/29=1,30=1/1,2,3,16;
 1/10=7,30=1/3;
 99//99;
 -----
 Title
 -----
 Symbolic Z-matrix:
 Charge = -1 Multiplicity = 1
 C                     0.40923   0.00086   0.00107 
 H                     0.73191  -0.83593   0.60451 
 H                     0.73053   0.9421    0.42417 
 H                     0.73285  -0.10311  -1.02538 
 Cl                    3.36702  -0.00019  -0.00048 
 Br                   -1.58219  -0.00009   0.00001 
 

 GradGradGradGradGradGradGradGradGradGradGradGradGradGradGradGradGradGrad
 Berny optimization.
 Initialization pass.
 Trust Radius=3.00D-01 FncErr=1.00D-07 GrdErr=1.00D-07 EigMax=2.50D+02 EigMin=1.00D-04
 Number of steps in this run=      2 maximum allowed number of steps=      2.
 GradGradGradGradGradGradGradGradGradGradGradGradGradGradGradGradGradGrad

                          Input orientation:                          
 ---------------------------------------------------------------------
 Center     Atomic      Atomic             Coordinates (Angstroms)
 Number     Number       Type             X           Y           Z
 ---------------------------------------------------------------------
      1          6           0        0.409230    0.000860    0.001070
      2          1           0        0.731910   -0.835930    0.604510
      3          1           0        0.730530    0.942100    0.424170
      4          1           0        0.732850   -0.103110   -1.025380
      5         17           0        3.367020   -0.000190   -0.000480
      6         35           0       -1.582190   -0.000090    0.000010
 ---------------------------------------------------------------------
                    Distance matrix (angstroms):
                    1          2          3          4          5
     1  C    0.000000
     2  H    1.080962   0.000000
     3  H    1.080824   1.787153   0.000000
     4  H    1.081267   1.787056   1.787083   0.000000
     5  Cl   2.957791   2.829890   2.831840   2.828403   0.000000
     6  Br   1.991421   2.533596   2.533043   2.534058   4.949210
                    6
     6  Br   0.000000
 Symmetry turned off by external request.
 This structure is nearly, but not quite of a higher symmetry.
 Consider Symm=Loose if the higher symmetry is desired.
 Stoichiometry    CH3BrCl(1-)
 Framework group  C1[X(CH3BrCl)]
 Deg. of freedom    12
 Full point group                 C1      NOp   1
 Rotational constants (GHZ):         157.0115036           0.8433780           0.8433777
 Standard basis: 6-311G(d,p) (5D, 7F)
   106 basis functions,   195 primitive gaussians,   111 cartesian basis functions
    31 alpha electrons       31 beta electrons
       nuclear repulsion energy       178.8369934392 Hartrees.
 NAtoms=    6 NActive=    6 NUniq=    6 SFac= 1.00D+00 NAtFMM=   60 NAOKFM=F Big=F
 Integral buffers will be    131072 words long.
 Raffenetti 2 integral format.
 Two-electron integral symmetry is turned off.
 One-electron integrals computed using PRISM.
 NBasis=   106 RedAO= T EigKep=  9.96D-03  NBF=   106
 NBsUse=   106 1.00D-06 EigRej= -1.00D+00 NBFU=   106
 ExpMin= 1.03D-01 ExpMax= 4.40D+05 ExpMxC= 1.51D+04 IAcc=3 IRadAn=         5 AccDes= 0.00D+00
 Harris functional with IExCor= 1009 and IRadAn=       5 diagonalized for initial guess.
 HarFok:  IExCor= 1009 AccDes= 0.00D+00 IRadAn=         5 IDoV= 1 UseB2=F ITyADJ=14
 ICtDFT=  3500011 ScaDFX=  1.000000  1.000000  1.000000  1.000000
 FoFCou: FMM=F IPFlag=           0 FMFlag=      100000 FMFlg1=           0
         NFxFlg=           0 DoJE=T BraDBF=F KetDBF=T FulRan=T
         wScrn=  0.000000 ICntrl=       500 IOpCl=  0 I1Cent=   200000004 NGrid=           0
         NMat0=    1 NMatS0=      1 NMatT0=    0 NMatD0=    1 NMtDS0=    0 NMtDT0=    0
 Symmetry not used in FoFCou.
 Keep R1 ints in memory in canonical form, NReq=20756204.
 Requested convergence on RMS density matrix=1.00D-08 within 128 cycles.
 Requested convergence on MAX density matrix=1.00D-06.
 Requested convergence on             energy=1.00D-06.
 No special actions if energy rises.
 Integral accuracy reduced to 1.0D-05 until final iterations.
 Initial convergence to 1.0D-05 achieved.  Increase integral accuracy.
 SCF Done:  E(RM062X) =  -3074.35146455     A.U. after   13 cycles
            NFock= 13  Conv=0.42D-08     -V/T= 2.0013

 **********************************************************************

            Population analysis using the SCF density.

 **********************************************************************

 Alpha  occ. eigenvalues -- -485.18950-102.36243 -63.18175 -57.00892 -57.00678
 Alpha  occ. eigenvalues --  -57.00678 -10.44369  -9.50412  -8.86870  -7.22528
 Alpha  occ. eigenvalues --   -7.22505  -7.22505  -6.69555  -6.68701  -6.68701
 Alpha  occ. eigenvalues --   -2.72709  -2.72415  -2.72415  -2.71658  -2.71658
 Alpha  occ. eigenvalues --   -0.75443  -0.61829  -0.58822  -0.36309  -0.36292
 Alpha  occ. eigenvalues --   -0.29869  -0.20837  -0.20836  -0.10489  -0.10488
 Alpha  occ. eigenvalues --   -0.10436
 Alpha virt. eigenvalues --    0.17319   0.23851   0.28675   0.28680   0.43824
 Alpha virt. eigenvalues --    0.45683   0.45690   0.46863   0.46864   0.55836
 Alpha virt. eigenvalues --    0.56567   0.56775   0.56784   0.67641   0.76136
 Alpha virt. eigenvalues --    0.76144   0.77618   0.81631   0.81634   0.85376
 Alpha virt. eigenvalues --    0.85380   0.91979   1.01879   1.09782   1.23341
 Alpha virt. eigenvalues --    1.23343   1.23756   1.23760   1.29323   1.29327
 Alpha virt. eigenvalues --    1.31706   1.62785   1.65750   1.65760   1.83743
 Alpha virt. eigenvalues --    1.85557   1.85559   2.08315   2.09395   2.09398
 Alpha virt. eigenvalues --    2.27239   2.30795   2.30800   2.43654   2.43658
 Alpha virt. eigenvalues --    2.49050   2.55511   2.59863   2.59890   2.69827
 Alpha virt. eigenvalues --    2.69849   3.08698   3.18163   3.89798   3.89876
 Alpha virt. eigenvalues --    4.42708   4.42709   4.52739   4.52742   4.80905
 Alpha virt. eigenvalues --    6.70624   7.69955   7.69956   7.80211   9.88459
 Alpha virt. eigenvalues --   24.09137  25.78921  25.78930  25.94886  48.27284
 Alpha virt. eigenvalues --  215.91889 290.84659 290.84659 290.978641020.76769
          Condensed to atoms (all electrons):
               1          2          3          4          5          6
     1  C    5.033259   0.408144   0.408151   0.408116  -0.012890   0.153033
     2  H    0.408144   0.488919  -0.018044  -0.018069  -0.005233  -0.049680
     3  H    0.408151  -0.018044   0.489088  -0.018066  -0.005220  -0.049734
     4  H    0.408116  -0.018069  -0.018066   0.488862  -0.005248  -0.049648
     5  Cl  -0.012890  -0.005233  -0.005220  -0.005248  17.950237   0.007535
     6  Br   0.153033  -0.049680  -0.049734  -0.049648   0.007535  35.243343
 Mulliken charges:
               1
     1  C   -0.397813
     2  H    0.193964
     3  H    0.193825
     4  H    0.194054
     5  Cl  -0.929181
     6  Br  -0.254848
 Sum of Mulliken charges =  -1.00000
 Mulliken charges with hydrogens summed into heavy atoms:
               1
     1  C    0.184029
     5  Cl  -0.929181
     6  Br  -0.254848
 Electronic spatial extent (au):  <R**2>=           1158.7990
 Charge=             -1.0000 electrons
 Dipole moment (field-independent basis, Debye):
    X=            -11.6172    Y=              0.0019    Z=              0.0031  Tot=             11.6172
 Quadrupole moment (field-independent basis, Debye-Ang):
   XX=            -98.1647   YY=            -43.0173   ZZ=            -43.0179
   XY=              0.0024   XZ=              0.0073   YZ=             -0.0002
 Traceless Quadrupole moment (field-independent basis, Debye-Ang):
   XX=            -36.7648   YY=             18.3827   ZZ=             18.3821
   XY=              0.0024   XZ=              0.0073   YZ=             -0.0002
 Octapole moment (field-independent basis, Debye-Ang**2):
  XXX=           -259.3236  YYY=              0.2834  ZZZ=             -0.9098  XYY=            -26.9938
  XXY=              0.0032  XXZ=              0.0188  XZZ=            -26.9923  YZZ=             -0.2863
  YYZ=              0.9135  XYZ=             -0.0008
 Hexadecapole moment (field-independent basis, Debye-Ang**3):
 XXXX=          -2064.3758 YYYY=            -62.9920 ZZZZ=            -62.9993 XXXY=              0.0479
 XXXZ=              0.1564 YYYX=              0.2243 YYYZ=              0.0026 ZZZX=             -0.5907
 ZZZY=             -0.0021 XXYY=           -260.4037 XXZZ=           -260.3998 YYZZ=            -20.9969
 XXYZ=             -0.0024 YYXZ=              0.6893 ZZXY=             -0.2026
 N-N= 1.788369934392D+02 E-N=-7.710126461241D+03  KE= 3.070208811061D+03
 Calling FoFJK, ICntrl=      2127 FMM=F ISym2X=0 I1Cent= 0 IOpClX= 0 NMat=1 NMatS=1 NMatT=0.
 -------------------------------------------------------------------
 Center     Atomic                   Forces (Hartrees/Bohr)
 Number     Number              X              Y              Z
 -------------------------------------------------------------------
      1        6          -0.000359787   -0.000099673   -0.000248034
      2        1          -0.000019352    0.000034023    0.000011315
      3        1           0.000039983    0.000060039    0.000038004
      4        1          -0.000117132    0.000025502    0.000216239
      5       17           0.003244600   -0.000000420   -0.000006334
      6       35          -0.002788313   -0.000019472   -0.000011191
 -------------------------------------------------------------------
 Cartesian Forces:  Max     0.003244600 RMS     0.001015792

 GradGradGradGradGradGradGradGradGradGradGradGradGradGradGradGradGradGrad
 Berny optimization.
 Search for a local minimum.
 Step number   1 out of a maximum of    2
 All quantities printed in internal units (Hartrees-Bohrs-Radians)
 Second derivative matrix not updated -- first step.
 The second derivative matrix:
                          X1        Y1        Z1        X2        Y2
           X1           0.43911
           Y1          -0.00019   0.64585
           Z1          -0.00015   0.00002   0.64525
           X2          -0.09833   0.07689  -0.05543   0.08230
           Y2           0.06608  -0.24508   0.11653  -0.07015   0.23907
           Z2          -0.04764   0.11655  -0.16755   0.05057  -0.12849
           X3          -0.09813  -0.08622  -0.03876   0.00800   0.01072
           Y3          -0.07407  -0.28816  -0.09199  -0.00835  -0.01189
           Z3          -0.03330  -0.09200  -0.12487   0.01250   0.01832
           X4          -0.09840   0.00958   0.09440   0.00803  -0.00665
           Y4           0.00823  -0.08594  -0.02456  -0.01454   0.01373
           Z4           0.08114  -0.02458  -0.32617   0.00401  -0.00349
           X5           0.00000   0.00000   0.00000   0.00000   0.00000
           Y5           0.00000   0.00000   0.00000   0.00000   0.00000
           Z5           0.00000   0.00000   0.00000   0.00000   0.00000
           X6          -0.14425  -0.00006  -0.00006  -0.00000  -0.00000
           Y6          -0.00005  -0.02666   0.00000   0.01615   0.00417
           Z6          -0.00006   0.00000  -0.02667  -0.01164  -0.00287
                          Z2        X3        Y3        Z3        X4
           Z2           0.15356
           X3           0.01059   0.08211
           Y3          -0.01203   0.07862   0.28652
           Z3           0.01872   0.03534   0.10142   0.10650
           X4          -0.01352   0.00801   0.00380  -0.01454   0.08238
           Y4           0.02682   0.01505   0.00834  -0.02998  -0.00874
           Z4          -0.00698   0.00100   0.00035  -0.00155  -0.08614
           X5           0.00000   0.00000   0.00000   0.00000   0.00000
           Y5           0.00000   0.00000   0.00000   0.00000   0.00000
           Z5           0.00000   0.00000   0.00000   0.00000   0.00000
           X6           0.00000   0.00001  -0.00000  -0.00000  -0.00001
           Y6          -0.00285  -0.01817   0.00519   0.00224   0.00201
           Z6           0.00225  -0.00817   0.00225   0.00120   0.01980
                          Y4        Z4        X5        Y5        Z5
           Y4           0.06362
           Z4           0.02711   0.32851
           X5           0.00000   0.00000   1.00000
           Y5           0.00000   0.00000   0.00000   1.00000
           Z5           0.00000   0.00000   0.00000   0.00000   1.00000
           X6          -0.00000  -0.00000   0.00000   0.00000   0.00000
           Y6           0.00025   0.00061   0.00000   0.00000   0.00000
           Z6           0.00062   0.00618   0.00000   0.00000   0.00000
                          X6        Y6        Z6
           X6           0.14425
           Y6           0.00006   0.01705
           Z6           0.00007  -0.00000   0.01704
 ITU=  0
     Eigenvalues ---    0.05129   0.05130   0.06555   0.08070   0.08071
     Eigenvalues ---    0.13788   0.13794   0.26040   0.63291   0.73879
     Eigenvalues ---    0.94544   0.94637
 Angle between quadratic step and forces=  51.92 degrees.
 Linear search not attempted -- first point.
 B after Tr=    -0.002390   -0.000077   -0.000111
         Rot=    1.000000    0.000000    0.000017   -0.000012 Ang=   0.00 deg.
 Variable       Old X    -DE/DX   Delta X   Delta X   Delta X     New X
                                 (Linear)    (Quad)   (Total)
    X1        0.77333  -0.00036   0.00000   0.00146  -0.00093   0.77241
    Y1        0.00163  -0.00010   0.00000   0.00006  -0.00000   0.00162
    Z1        0.00202  -0.00025   0.00000  -0.00002  -0.00011   0.00192
    X2        1.38311  -0.00002   0.00000   0.00491   0.00252   1.38563
    Y2       -1.57968   0.00003   0.00000   0.00082   0.00078  -1.57890
    Z2        1.14236   0.00001   0.00000  -0.00051  -0.00057   1.14179
    X3        1.38050   0.00004   0.00000   0.00557   0.00312   1.38362
    Y3        1.78031   0.00006   0.00000  -0.00070  -0.00075   1.77956
    Z3        0.80157   0.00004   0.00000  -0.00029  -0.00035   0.80121
    X4        1.38489  -0.00012   0.00000   0.00413   0.00181   1.38669
    Y4       -0.19485   0.00003   0.00000   0.00017   0.00013  -0.19472
    Z4       -1.93769   0.00022   0.00000   0.00127   0.00121  -1.93648
    X5        6.36275   0.00324   0.00000   0.00442   0.00203   6.36478
    Y5       -0.00036  -0.00000   0.00000  -0.00001   0.00006  -0.00030
    Z5       -0.00091  -0.00001   0.00000   0.00000   0.00011  -0.00080
    X6       -2.98991  -0.00279   0.00000  -0.00616  -0.00855  -2.99845
    Y6       -0.00017  -0.00002   0.00000  -0.00007  -0.00021  -0.00038
    Z6        0.00002  -0.00001   0.00000  -0.00007  -0.00029  -0.00027
         Item               Value     Threshold  Converged?
 Maximum Force            0.003245     0.000450     NO 
 RMS     Force            0.001016     0.000300     NO 
 Maximum Displacement     0.008548     0.001800     NO 
 RMS     Displacement     0.002364     0.001200     NO 
 Predicted change in Energy=-2.314394D-05
 GradGradGradGradGradGradGradGradGradGradGradGradGradGradGradGradGradGrad

 1\1\GINC-FS\Force\RM062X\6-311G(d,p)\C1H3Br1Cl1(1-)\XINYAN\22-Jan-2019
 \0\\# M062X/6-311G** force nosymm int=ultrafine\\Title\\-1,1\C,0.40923
 ,0.00086,0.00107\H,0.73191,-0.83593,0.60451\H,0.73053,0.9421,0.42417\H
 ,0.73285,-0.10311,-1.02538\Cl,3.36702,-0.00019,-0.00048\Br,-1.58219,-0
 .00009,0.00001\\Version=ES64L-G16RevA.03\HF=-3074.3514646\RMSD=4.225e-
 09\RMSF=1.016e-03\Dipole=-4.3687773,0.0008119,0.001275\Quadrupole=-27.
 3336958,13.6670536,13.6666422,0.0018175,0.0054031,-0.0001438\PG=C01 [X
 (C1H3Br1Cl1)]\\@


 PERICLES, SOPHOCLES,
 PELOPONESIAN WAR,
 FRENCH VERBS, LATIN VERBS
 H2SO4.
 Job cpu time:       0 days  0 hours  0 minutes 39.8 seconds.
 Elapsed time:       0 days  0 hours  0 minutes  8.5 seconds.
 File lengths (MBytes):  RWF=     10 Int=      0 D2E=      0 Chk=      2 Scr=      1
 Normal termination of Gaussian 16 at Tue Jan 22 16:52:28 2019.
