 Entering Gaussian System, Link 0=g16
 Input=CH3BrCl-12.gjf
 Output=CH3BrCl-12.log
 Initial command:
 /home/xinyan/g16/l1.exe "/scratch/tmp/Gau-12543.inp" -scrdir="/scratch/tmp/"
 Entering Link 1 = /home/xinyan/g16/l1.exe PID=     12544.
  
 Copyright (c) 1988,1990,1992,1993,1995,1998,2003,2009,2016,
            Gaussian, Inc.  All Rights Reserved.
  
 This is part of the Gaussian(R) 16 program.  It is based on
 the Gaussian(R) 09 system (copyright 2009, Gaussian, Inc.),
 the Gaussian(R) 03 system (copyright 2003, Gaussian, Inc.),
 the Gaussian(R) 98 system (copyright 1998, Gaussian, Inc.),
 the Gaussian(R) 94 system (copyright 1995, Gaussian, Inc.),
 the Gaussian 92(TM) system (copyright 1992, Gaussian, Inc.),
 the Gaussian 90(TM) system (copyright 1990, Gaussian, Inc.),
 the Gaussian 88(TM) system (copyright 1988, Gaussian, Inc.),
 the Gaussian 86(TM) system (copyright 1986, Carnegie Mellon
 University), and the Gaussian 82(TM) system (copyright 1983,
 Carnegie Mellon University). Gaussian is a federally registered
 trademark of Gaussian, Inc.
  
 This software contains proprietary and confidential information,
 including trade secrets, belonging to Gaussian, Inc.
  
 This software is provided under written license and may be
 used, copied, transmitted, or stored only in accord with that
 written license.
  
 The following legend is applicable only to US Government
 contracts under FAR:
  
                    RESTRICTED RIGHTS LEGEND
  
 Use, reproduction and disclosure by the US Government is
 subject to restrictions as set forth in subparagraphs (a)
 and (c) of the Commercial Computer Software - Restricted
 Rights clause in FAR 52.227-19.
  
 Gaussian, Inc.
 340 Quinnipiac St., Bldg. 40, Wallingford CT 06492
  
  
 ---------------------------------------------------------------
 Warning -- This program may not be used in any manner that
 competes with the business of Gaussian, Inc. or will provide
 assistance to any competitor of Gaussian, Inc.  The licensee
 of this program is prohibited from giving any competitor of
 Gaussian, Inc. access to this program.  By using this program,
 the user acknowledges that Gaussian, Inc. is engaged in the
 business of creating and licensing software in the field of
 computational chemistry and represents and warrants to the
 licensee that it is not a competitor of Gaussian, Inc. and that
 it will not use this program in any manner prohibited above.
 ---------------------------------------------------------------
  

 Cite this work as:
 Gaussian 16, Revision A.03,
 M. J. Frisch, G. W. Trucks, H. B. Schlegel, G. E. Scuseria, 
 M. A. Robb, J. R. Cheeseman, G. Scalmani, V. Barone, 
 G. A. Petersson, H. Nakatsuji, X. Li, M. Caricato, A. V. Marenich, 
 J. Bloino, B. G. Janesko, R. Gomperts, B. Mennucci, H. P. Hratchian, 
 J. V. Ortiz, A. F. Izmaylov, J. L. Sonnenberg, D. Williams-Young, 
 F. Ding, F. Lipparini, F. Egidi, J. Goings, B. Peng, A. Petrone, 
 T. Henderson, D. Ranasinghe, V. G. Zakrzewski, J. Gao, N. Rega, 
 G. Zheng, W. Liang, M. Hada, M. Ehara, K. Toyota, R. Fukuda, 
 J. Hasegawa, M. Ishida, T. Nakajima, Y. Honda, O. Kitao, H. Nakai, 
 T. Vreven, K. Throssell, J. A. Montgomery, Jr., J. E. Peralta, 
 F. Ogliaro, M. J. Bearpark, J. J. Heyd, E. N. Brothers, K. N. Kudin, 
 V. N. Staroverov, T. A. Keith, R. Kobayashi, J. Normand, 
 K. Raghavachari, A. P. Rendell, J. C. Burant, S. S. Iyengar, 
 J. Tomasi, M. Cossi, J. M. Millam, M. Klene, C. Adamo, R. Cammi, 
 J. W. Ochterski, R. L. Martin, K. Morokuma, O. Farkas, 
 J. B. Foresman, and D. J. Fox, Gaussian, Inc., Wallingford CT, 2016.
 
 ******************************************
 Gaussian 16:  ES64L-G16RevA.03 25-Dec-2016
                22-Jan-2019 
 ******************************************
 %nproc=5
 Will use up to    5 processors via shared memory.
 -------------------------------------------
 # M062X/6-311G** force nosymm int=ultrafine
 -------------------------------------------
 1/10=7,30=1,38=1/1,3;
 2/12=2,15=1,17=6,18=5,40=1/2;
 3/5=4,6=6,7=101,11=2,25=1,30=1,71=1,74=-55,75=-5/1,2,3;
 4//1;
 5/5=2,38=5/2;
 6/7=2,8=2,9=2,10=2,28=1/1;
 7/29=1,30=1/1,2,3,16;
 1/10=7,30=1/3;
 99//99;
 -----
 Title
 -----
 Symbolic Z-matrix:
 Charge = -1 Multiplicity = 1
 C                     0.56953   0.00038   0.00117 
 H                     0.81779  -0.85194   0.61188 
 H                     0.81766   0.95535   0.43423 
 H                     0.81877  -0.10204  -1.04208 
 Cl                    3.25269  -0.00009  -0.00029 
 Br                   -1.55921  -0.00003  -0.0001 
 

 GradGradGradGradGradGradGradGradGradGradGradGradGradGradGradGradGradGrad
 Berny optimization.
 Initialization pass.
 Trust Radius=3.00D-01 FncErr=1.00D-07 GrdErr=1.00D-07 EigMax=2.50D+02 EigMin=1.00D-04
 Number of steps in this run=      2 maximum allowed number of steps=      2.
 GradGradGradGradGradGradGradGradGradGradGradGradGradGradGradGradGradGrad

                          Input orientation:                          
 ---------------------------------------------------------------------
 Center     Atomic      Atomic             Coordinates (Angstroms)
 Number     Number       Type             X           Y           Z
 ---------------------------------------------------------------------
      1          6           0        0.569530    0.000380    0.001170
      2          1           0        0.817790   -0.851940    0.611880
      3          1           0        0.817660    0.955350    0.434230
      4          1           0        0.818770   -0.102040   -1.042080
      5         17           0        3.252690   -0.000090   -0.000290
      6         35           0       -1.559210   -0.000030   -0.000100
 ---------------------------------------------------------------------
                    Distance matrix (angstroms):
                    1          2          3          4          5
     1  C    0.000000
     2  H    1.077520   0.000000
     3  H    1.077533   1.816000   0.000000
     4  H    1.077488   1.816022   1.815920   0.000000
     5  Cl   2.683160   2.651252   2.651612   2.649469   0.000000
     6  Br   2.128740   2.598153   2.598250   2.598253   4.811900
                    6
     6  Br   0.000000
 Symmetry turned off by external request.
 This structure is nearly, but not quite of a higher symmetry.
 Consider Symm=Loose if the higher symmetry is desired.
 Stoichiometry    CH3BrCl(1-)
 Framework group  C1[X(CH3BrCl)]
 Deg. of freedom    12
 Full point group                 C1      NOp   1
 Rotational constants (GHZ):         152.0568662           0.8875502           0.8875499
 Standard basis: 6-311G(d,p) (5D, 7F)
   106 basis functions,   195 primitive gaussians,   111 cartesian basis functions
    31 alpha electrons       31 beta electrons
       nuclear repulsion energy       179.0341995120 Hartrees.
 NAtoms=    6 NActive=    6 NUniq=    6 SFac= 1.00D+00 NAtFMM=   60 NAOKFM=F Big=F
 Integral buffers will be    131072 words long.
 Raffenetti 2 integral format.
 Two-electron integral symmetry is turned off.
 One-electron integrals computed using PRISM.
 NBasis=   106 RedAO= T EigKep=  1.05D-02  NBF=   106
 NBsUse=   106 1.00D-06 EigRej= -1.00D+00 NBFU=   106
 ExpMin= 1.03D-01 ExpMax= 4.40D+05 ExpMxC= 1.51D+04 IAcc=3 IRadAn=         5 AccDes= 0.00D+00
 Harris functional with IExCor= 1009 and IRadAn=       5 diagonalized for initial guess.
 HarFok:  IExCor= 1009 AccDes= 0.00D+00 IRadAn=         5 IDoV= 1 UseB2=F ITyADJ=14
 ICtDFT=  3500011 ScaDFX=  1.000000  1.000000  1.000000  1.000000
 FoFCou: FMM=F IPFlag=           0 FMFlag=      100000 FMFlg1=           0
         NFxFlg=           0 DoJE=T BraDBF=F KetDBF=T FulRan=T
         wScrn=  0.000000 ICntrl=       500 IOpCl=  0 I1Cent=   200000004 NGrid=           0
         NMat0=    1 NMatS0=      1 NMatT0=    0 NMatD0=    1 NMtDS0=    0 NMtDT0=    0
 Symmetry not used in FoFCou.
 Keep R1 ints in memory in canonical form, NReq=20756204.
 Requested convergence on RMS density matrix=1.00D-08 within 128 cycles.
 Requested convergence on MAX density matrix=1.00D-06.
 Requested convergence on             energy=1.00D-06.
 No special actions if energy rises.
 Integral accuracy reduced to 1.0D-05 until final iterations.
 Initial convergence to 1.0D-05 achieved.  Increase integral accuracy.
 SCF Done:  E(RM062X) =  -3074.34652354     A.U. after   14 cycles
            NFock= 14  Conv=0.49D-08     -V/T= 2.0014

 **********************************************************************

            Population analysis using the SCF density.

 **********************************************************************

 Alpha  occ. eigenvalues -- -485.16799-102.37659 -63.16009 -56.98713 -56.98521
 Alpha  occ. eigenvalues --  -56.98521 -10.44834  -9.51860  -8.84665  -7.23997
 Alpha  occ. eigenvalues --   -7.23934  -7.23934  -6.67279  -6.66529  -6.66529
 Alpha  occ. eigenvalues --   -2.70429  -2.70181  -2.70181  -2.69516  -2.69515
 Alpha  occ. eigenvalues --   -0.72291  -0.62765  -0.59427  -0.36213  -0.36211
 Alpha  occ. eigenvalues --   -0.26803  -0.19440  -0.19439  -0.11856  -0.11856
 Alpha  occ. eigenvalues --   -0.11452
 Alpha virt. eigenvalues --    0.16219   0.23448   0.29048   0.29055   0.44488
 Alpha virt. eigenvalues --    0.46141   0.46144   0.48239   0.48241   0.52523
 Alpha virt. eigenvalues --    0.55860   0.55866   0.59807   0.68571   0.76535
 Alpha virt. eigenvalues --    0.76540   0.78691   0.83714   0.83714   0.86749
 Alpha virt. eigenvalues --    0.86750   0.89868   1.01150   1.11716   1.21949
 Alpha virt. eigenvalues --    1.21949   1.22181   1.22181   1.28758   1.28761
 Alpha virt. eigenvalues --    1.37090   1.61164   1.65139   1.65145   1.77340
 Alpha virt. eigenvalues --    1.87877   1.87879   2.05038   2.10208   2.10211
 Alpha virt. eigenvalues --    2.26569   2.26574   2.27432   2.42714   2.42717
 Alpha virt. eigenvalues --    2.51032   2.59719   2.61164   2.61168   2.73407
 Alpha virt. eigenvalues --    2.73410   3.09088   3.14752   3.89061   3.89070
 Alpha virt. eigenvalues --    4.44626   4.44628   4.52087   4.52087   4.77678
 Alpha virt. eigenvalues --    6.70061   7.71572   7.71573   7.82313   9.89396
 Alpha virt. eigenvalues --   24.08993  25.78216  25.78222  26.01948  48.27626
 Alpha virt. eigenvalues --  215.93567 290.86464 290.86464 290.990901020.76742
          Condensed to atoms (all electrons):
               1          2          3          4          5          6
     1  C    4.999993   0.412982   0.412959   0.413040  -0.002563   0.129205
     2  H    0.412982   0.489912  -0.016499  -0.016468  -0.020380  -0.047701
     3  H    0.412959  -0.016499   0.489956  -0.016485  -0.020361  -0.047681
     4  H    0.413040  -0.016468  -0.016485   0.489778  -0.020454  -0.047711
     5  Cl  -0.002563  -0.020380  -0.020361  -0.020454  17.921155   0.013157
     6  Br   0.129205  -0.047701  -0.047681  -0.047711   0.013157  35.359123
 Mulliken charges:
               1
     1  C   -0.365616
     2  H    0.198152
     3  H    0.198110
     4  H    0.198299
     5  Cl  -0.870554
     6  Br  -0.358392
 Sum of Mulliken charges =  -1.00000
 Mulliken charges with hydrogens summed into heavy atoms:
               1
     1  C    0.228945
     5  Cl  -0.870554
     6  Br  -0.358392
 Electronic spatial extent (au):  <R**2>=           1105.6597
 Charge=             -1.0000 electrons
 Dipole moment (field-independent basis, Debye):
    X=             -9.5425    Y=              0.0010    Z=              0.0028  Tot=              9.5425
 Quadrupole moment (field-independent basis, Debye-Ang):
   XX=            -93.6058   YY=            -43.0532   ZZ=            -43.0525
   XY=              0.0016   XZ=              0.0046   YZ=             -0.0004
 Traceless Quadrupole moment (field-independent basis, Debye-Ang):
   XX=            -33.7020   YY=             16.8506   ZZ=             16.8514
   XY=              0.0016   XZ=              0.0046   YZ=             -0.0004
 Octapole moment (field-independent basis, Debye-Ang**2):
  XXX=           -228.5068  YYY=              0.2992  ZZZ=             -0.9960  XYY=            -25.2029
  XXY=              0.0016  XXZ=              0.0052  XZZ=            -25.2014  YZZ=             -0.3009
  YYZ=              0.9921  XYZ=             -0.0001
 Hexadecapole moment (field-independent basis, Debye-Ang**3):
 XXXX=          -1888.8188 YYYY=            -63.2645 ZZZZ=            -63.2672 XXXY=              0.0191
 XXXZ=              0.0626 YYYX=              0.2578 YYYZ=              0.0012 ZZZX=             -0.8040
 ZZZY=             -0.0021 XXYY=           -246.6288 XXZZ=           -246.6246 YYZZ=            -21.0855
 XXYZ=             -0.0011 YYXZ=              0.8363 ZZXY=             -0.2483
 N-N= 1.790341995120D+02 E-N=-7.711029692005D+03  KE= 3.070183677955D+03
 Calling FoFJK, ICntrl=      2127 FMM=F ISym2X=0 I1Cent= 0 IOpClX= 0 NMat=1 NMatS=1 NMatT=0.
 -------------------------------------------------------------------
 Center     Atomic                   Forces (Hartrees/Bohr)
 Number     Number              X              Y              Z
 -------------------------------------------------------------------
      1        6          -0.019101686    0.000001946    0.000002184
      2        1          -0.000638945    0.000189313   -0.000131677
      3        1          -0.000638144   -0.000199517   -0.000092129
      4        1          -0.000629991    0.000020306    0.000226628
      5       17           0.011262793   -0.000009421   -0.000010808
      6       35           0.009745973   -0.000002626    0.000005802
 -------------------------------------------------------------------
 Cartesian Forces:  Max     0.019101686 RMS     0.005715839

 GradGradGradGradGradGradGradGradGradGradGradGradGradGradGradGradGradGrad
 Berny optimization.
 Search for a local minimum.
 Step number   1 out of a maximum of    2
 All quantities printed in internal units (Hartrees-Bohrs-Radians)
 Second derivative matrix not updated -- first step.
 The second derivative matrix:
                          X1        Y1        Z1        X2        Y2
           X1           0.35217
           Y1          -0.00004   0.68203
           Z1          -0.00024  -0.00003   0.68209
           X2          -0.08250   0.06085  -0.04357   0.06807
           Y2           0.05399  -0.26033   0.11849  -0.05676   0.25155
           Z2          -0.03866   0.11849  -0.17988   0.04066  -0.13240
           X3          -0.08248  -0.06814  -0.03088   0.00720   0.00889
           Y3          -0.06045  -0.30255  -0.09414  -0.00687  -0.01097
           Z3          -0.02739  -0.09414  -0.13766   0.01103   0.01911
           X4          -0.08264   0.00734   0.07474   0.00723  -0.00612
           Y4           0.00652  -0.09736  -0.02432  -0.01269   0.01673
           Z4           0.06634  -0.02432  -0.34275   0.00297  -0.00310
           X5           0.00000   0.00000   0.00000   0.00000   0.00000
           Y5           0.00000   0.00000   0.00000   0.00000   0.00000
           Z5           0.00000   0.00000   0.00000   0.00000   0.00000
           X6          -0.10455  -0.00002  -0.00005   0.00000   0.00000
           Y6          -0.00001  -0.02180   0.00000   0.01547   0.00302
           Z6          -0.00005   0.00000  -0.02180  -0.01108  -0.00209
                          Z2        X3        Y3        Z3        X4
           Z2           0.16165
           X3           0.00948   0.06805
           Y3          -0.01252   0.06356   0.29873
           Z3           0.02218   0.02881   0.10519   0.11448
           X4          -0.01148   0.00722   0.00377  -0.01244   0.06821
           Y4           0.02851   0.01302   0.01104  -0.03180  -0.00685
           Z4          -0.00554   0.00045  -0.00018   0.00015  -0.06975
           X5           0.00000   0.00000   0.00000   0.00000   0.00000
           Y5           0.00000   0.00000   0.00000   0.00000   0.00000
           Z5           0.00000   0.00000   0.00000   0.00000   0.00000
           X6          -0.00000   0.00001  -0.00000  -0.00000  -0.00001
           Y6          -0.00208  -0.01733   0.00376   0.00165   0.00186
           Z6           0.00159  -0.00786   0.00166   0.00085   0.01893
                          Y4        Z4        X5        Y5        Z5
           Y4           0.06945
           Z4           0.02718   0.34366
           X5           0.00000   0.00000   1.00000
           Y5           0.00000   0.00000   0.00000   1.00000
           Z5           0.00000   0.00000   0.00000   0.00000   1.00000
           X6          -0.00000  -0.00000   0.00000   0.00000   0.00000
           Y6           0.00015   0.00043   0.00000   0.00000   0.00000
           Z6           0.00043   0.00448   0.00000   0.00000   0.00000
                          X6        Y6        Z6
           X6           0.10455
           Y6           0.00002   0.01488
           Z6           0.00005  -0.00000   0.01488
 ITU=  0
     Eigenvalues ---    0.05056   0.05056   0.05267   0.08710   0.08710
     Eigenvalues ---    0.14885   0.14886   0.26188   0.53001   0.73409
     Eigenvalues ---    0.98573   0.98584
 Angle between quadratic step and forces=  52.48 degrees.
 Linear search not attempted -- first point.
 B after Tr=     0.040362   -0.000017    0.000012
         Rot=    1.000000    0.000000   -0.000005    0.000001 Ang=   0.00 deg.
 Variable       Old X    -DE/DX   Delta X   Delta X   Delta X     New X
                                 (Linear)    (Quad)   (Total)
    X1        1.07626  -0.01910   0.00000  -0.08479  -0.04443   1.03183
    Y1        0.00072   0.00000   0.00000   0.00004   0.00002   0.00074
    Z1        0.00221   0.00000   0.00000  -0.00000   0.00000   0.00221
    X2        1.54540  -0.00064   0.00000  -0.07913  -0.03876   1.50664
    Y2       -1.60993   0.00019   0.00000   0.00145   0.00144  -1.60850
    Z2        1.15629  -0.00013   0.00000  -0.00103  -0.00103   1.15526
    X3        1.54515  -0.00064   0.00000  -0.07913  -0.03876   1.50639
    Y3        1.80535  -0.00020   0.00000  -0.00153  -0.00155   1.80380
    Z3        0.82058  -0.00009   0.00000  -0.00070  -0.00071   0.81987
    X4        1.54725  -0.00063   0.00000  -0.07898  -0.03864   1.50862
    Y4       -0.19283   0.00002   0.00000   0.00019   0.00018  -0.19265
    Z4       -1.96925   0.00023   0.00000   0.00175   0.00175  -1.96749
    X5        6.14669   0.01126   0.00000   0.01535   0.05571   6.20240
    Y5       -0.00017  -0.00001   0.00000  -0.00004  -0.00006  -0.00023
    Z5       -0.00055  -0.00001   0.00000  -0.00004  -0.00009  -0.00063
    X6       -2.94648   0.00975   0.00000   0.06451   0.10487  -2.84161
    Y6       -0.00006  -0.00000   0.00000  -0.00001  -0.00003  -0.00008
    Z6       -0.00019   0.00001   0.00000   0.00003   0.00007  -0.00012
         Item               Value     Threshold  Converged?
 Maximum Force            0.019102     0.000450     NO 
 RMS     Force            0.005716     0.000300     NO 
 Maximum Displacement     0.104872     0.001800     NO 
 RMS     Displacement     0.033815     0.001200     NO 
 Predicted change in Energy=-1.474463D-04
 GradGradGradGradGradGradGradGradGradGradGradGradGradGradGradGradGradGrad

 1\1\GINC-FS\Force\RM062X\6-311G(d,p)\C1H3Br1Cl1(1-)\XINYAN\22-Jan-2019
 \0\\# M062X/6-311G** force nosymm int=ultrafine\\Title\\-1,1\C,0.56953
 ,0.00038,0.00117\H,0.81779,-0.85194,0.61188\H,0.81766,0.95535,0.43423\
 H,0.81877,-0.10204,-1.04208\Cl,3.25269,-0.00009,-0.00029\Br,-1.55921,-
 0.00003,-0.0001\\Version=ES64L-G16RevA.03\HF=-3074.3465235\RMSD=4.928e
 -09\RMSF=5.716e-03\Dipole=-3.5500077,0.0004217,0.0011949\Quadrupole=-2
 5.056599,12.5280317,12.5285673,0.0012126,0.0034549,-0.000282\PG=C01 [X
 (C1H3Br1Cl1)]\\@


 ... SUBJECTS WHICH DISCLOSE THEIR FULL POWER, MEANING AND BEAUTY AS SOON
 AS THEY ARE PRESENTED TO THE MIND HAVE VERY LITTLE OF THOSE QUALITIES
 TO DISCLOSE.
                           -- CHARLES DUTTON (1882)
 Job cpu time:       0 days  0 hours  0 minutes 48.8 seconds.
 Elapsed time:       0 days  0 hours  0 minutes 10.5 seconds.
 File lengths (MBytes):  RWF=     10 Int=      0 D2E=      0 Chk=      2 Scr=      1
 Normal termination of Gaussian 16 at Tue Jan 22 16:50:43 2019.
