 Entering Gaussian System, Link 0=g16
 Input=CH3BrCl-45.gjf
 Output=CH3BrCl-45.log
 Initial command:
 /home/xinyan/g16/l1.exe "/scratch/tmp/Gau-14880.inp" -scrdir="/scratch/tmp/"
 Entering Link 1 = /home/xinyan/g16/l1.exe PID=     14881.
  
 Copyright (c) 1988,1990,1992,1993,1995,1998,2003,2009,2016,
            Gaussian, Inc.  All Rights Reserved.
  
 This is part of the Gaussian(R) 16 program.  It is based on
 the Gaussian(R) 09 system (copyright 2009, Gaussian, Inc.),
 the Gaussian(R) 03 system (copyright 2003, Gaussian, Inc.),
 the Gaussian(R) 98 system (copyright 1998, Gaussian, Inc.),
 the Gaussian(R) 94 system (copyright 1995, Gaussian, Inc.),
 the Gaussian 92(TM) system (copyright 1992, Gaussian, Inc.),
 the Gaussian 90(TM) system (copyright 1990, Gaussian, Inc.),
 the Gaussian 88(TM) system (copyright 1988, Gaussian, Inc.),
 the Gaussian 86(TM) system (copyright 1986, Carnegie Mellon
 University), and the Gaussian 82(TM) system (copyright 1983,
 Carnegie Mellon University). Gaussian is a federally registered
 trademark of Gaussian, Inc.
  
 This software contains proprietary and confidential information,
 including trade secrets, belonging to Gaussian, Inc.
  
 This software is provided under written license and may be
 used, copied, transmitted, or stored only in accord with that
 written license.
  
 The following legend is applicable only to US Government
 contracts under FAR:
  
                    RESTRICTED RIGHTS LEGEND
  
 Use, reproduction and disclosure by the US Government is
 subject to restrictions as set forth in subparagraphs (a)
 and (c) of the Commercial Computer Software - Restricted
 Rights clause in FAR 52.227-19.
  
 Gaussian, Inc.
 340 Quinnipiac St., Bldg. 40, Wallingford CT 06492
  
  
 ---------------------------------------------------------------
 Warning -- This program may not be used in any manner that
 competes with the business of Gaussian, Inc. or will provide
 assistance to any competitor of Gaussian, Inc.  The licensee
 of this program is prohibited from giving any competitor of
 Gaussian, Inc. access to this program.  By using this program,
 the user acknowledges that Gaussian, Inc. is engaged in the
 business of creating and licensing software in the field of
 computational chemistry and represents and warrants to the
 licensee that it is not a competitor of Gaussian, Inc. and that
 it will not use this program in any manner prohibited above.
 ---------------------------------------------------------------
  

 Cite this work as:
 Gaussian 16, Revision A.03,
 M. J. Frisch, G. W. Trucks, H. B. Schlegel, G. E. Scuseria, 
 M. A. Robb, J. R. Cheeseman, G. Scalmani, V. Barone, 
 G. A. Petersson, H. Nakatsuji, X. Li, M. Caricato, A. V. Marenich, 
 J. Bloino, B. G. Janesko, R. Gomperts, B. Mennucci, H. P. Hratchian, 
 J. V. Ortiz, A. F. Izmaylov, J. L. Sonnenberg, D. Williams-Young, 
 F. Ding, F. Lipparini, F. Egidi, J. Goings, B. Peng, A. Petrone, 
 T. Henderson, D. Ranasinghe, V. G. Zakrzewski, J. Gao, N. Rega, 
 G. Zheng, W. Liang, M. Hada, M. Ehara, K. Toyota, R. Fukuda, 
 J. Hasegawa, M. Ishida, T. Nakajima, Y. Honda, O. Kitao, H. Nakai, 
 T. Vreven, K. Throssell, J. A. Montgomery, Jr., J. E. Peralta, 
 F. Ogliaro, M. J. Bearpark, J. J. Heyd, E. N. Brothers, K. N. Kudin, 
 V. N. Staroverov, T. A. Keith, R. Kobayashi, J. Normand, 
 K. Raghavachari, A. P. Rendell, J. C. Burant, S. S. Iyengar, 
 J. Tomasi, M. Cossi, J. M. Millam, M. Klene, C. Adamo, R. Cammi, 
 J. W. Ochterski, R. L. Martin, K. Morokuma, O. Farkas, 
 J. B. Foresman, and D. J. Fox, Gaussian, Inc., Wallingford CT, 2016.
 
 ******************************************
 Gaussian 16:  ES64L-G16RevA.03 25-Dec-2016
                22-Jan-2019 
 ******************************************
 %nproc=5
 Will use up to    5 processors via shared memory.
 -------------------------------------------
 # M062X/6-311G** force nosymm int=ultrafine
 -------------------------------------------
 1/10=7,30=1,38=1/1,3;
 2/12=2,15=1,17=6,18=5,40=1/2;
 3/5=4,6=6,7=101,11=2,25=1,30=1,71=1,74=-55,75=-5/1,2,3;
 4//1;
 5/5=2,38=5/2;
 6/7=2,8=2,9=2,10=2,28=1/1;
 7/29=1,30=1/1,2,3,16;
 1/10=7,30=1/3;
 99//99;
 -----
 Title
 -----
 Symbolic Z-matrix:
 Charge = -1 Multiplicity = 1
 C                     1.28505   0.00018   0.00116 
 H                     0.96554  -0.83832   0.60159 
 H                     0.96562   0.93921   0.42758 
 H                     0.96417  -0.1      -1.02483 
 Cl                    3.13505  -0.00005  -0.00019 
 Br                   -1.62152  -0.00002  -0.00015 
 

 GradGradGradGradGradGradGradGradGradGradGradGradGradGradGradGradGradGrad
 Berny optimization.
 Initialization pass.
 Trust Radius=3.00D-01 FncErr=1.00D-07 GrdErr=1.00D-07 EigMax=2.50D+02 EigMin=1.00D-04
 Number of steps in this run=      2 maximum allowed number of steps=      2.
 GradGradGradGradGradGradGradGradGradGradGradGradGradGradGradGradGradGrad

                          Input orientation:                          
 ---------------------------------------------------------------------
 Center     Atomic      Atomic             Coordinates (Angstroms)
 Number     Number       Type             X           Y           Z
 ---------------------------------------------------------------------
      1          6           0        1.285050    0.000180    0.001160
      2          1           0        0.965540   -0.838320    0.601590
      3          1           0        0.965620    0.939210    0.427580
      4          1           0        0.964170   -0.100000   -1.024830
      5         17           0        3.135050   -0.000050   -0.000190
      6         35           0       -1.621520   -0.000020   -0.000150
 ---------------------------------------------------------------------
                    Distance matrix (angstroms):
                    1          2          3          4          5
     1  C    0.000000
     2  H    1.079669   0.000000
     3  H    1.079651   1.786027   0.000000
     4  H    1.079655   1.786158   1.785904   0.000000
     5  Cl   1.850001   2.402417   2.402420   2.402623   0.000000
     6  Br   2.906570   2.785268   2.785390   2.783120   4.756570
                    6
     6  Br   0.000000
 Symmetry turned off by external request.
 Stoichiometry    CH3BrCl(1-)
 Framework group  C1[X(CH3BrCl)]
 Deg. of freedom    12
 Full point group                 C1      NOp   1
 Rotational constants (GHZ):         157.1995911           0.8782565           0.8782557
 Standard basis: 6-311G(d,p) (5D, 7F)
   106 basis functions,   195 primitive gaussians,   111 cartesian basis functions
    31 alpha electrons       31 beta electrons
       nuclear repulsion energy       174.5027993913 Hartrees.
 NAtoms=    6 NActive=    6 NUniq=    6 SFac= 1.00D+00 NAtFMM=   60 NAOKFM=F Big=F
 Integral buffers will be    131072 words long.
 Raffenetti 2 integral format.
 Two-electron integral symmetry is turned off.
 One-electron integrals computed using PRISM.
 NBasis=   106 RedAO= T EigKep=  1.08D-02  NBF=   106
 NBsUse=   106 1.00D-06 EigRej= -1.00D+00 NBFU=   106
 ExpMin= 1.03D-01 ExpMax= 4.40D+05 ExpMxC= 1.51D+04 IAcc=3 IRadAn=         5 AccDes= 0.00D+00
 Harris functional with IExCor= 1009 and IRadAn=       5 diagonalized for initial guess.
 HarFok:  IExCor= 1009 AccDes= 0.00D+00 IRadAn=         5 IDoV= 1 UseB2=F ITyADJ=14
 ICtDFT=  3500011 ScaDFX=  1.000000  1.000000  1.000000  1.000000
 FoFCou: FMM=F IPFlag=           0 FMFlag=      100000 FMFlg1=           0
         NFxFlg=           0 DoJE=T BraDBF=F KetDBF=T FulRan=T
         wScrn=  0.000000 ICntrl=       500 IOpCl=  0 I1Cent=   200000004 NGrid=           0
         NMat0=    1 NMatS0=      1 NMatT0=    0 NMatD0=    1 NMtDS0=    0 NMtDT0=    0
 Symmetry not used in FoFCou.
 Keep R1 ints in memory in canonical form, NReq=20756204.
 Requested convergence on RMS density matrix=1.00D-08 within 128 cycles.
 Requested convergence on MAX density matrix=1.00D-06.
 Requested convergence on             energy=1.00D-06.
 No special actions if energy rises.
 Integral accuracy reduced to 1.0D-05 until final iterations.
 Initial convergence to 1.0D-05 achieved.  Increase integral accuracy.
 SCF Done:  E(RM062X) =  -3074.35525884     A.U. after   14 cycles
            NFock= 14  Conv=0.31D-08     -V/T= 2.0013

 **********************************************************************

            Population analysis using the SCF density.

 **********************************************************************

 Alpha  occ. eigenvalues -- -485.04115-102.52132 -63.03349 -56.85931 -56.85928
 Alpha  occ. eigenvalues --  -56.85928 -10.44043  -9.66345  -8.71952  -7.38785
 Alpha  occ. eigenvalues --   -7.38235  -7.38235  -6.54108  -6.54074  -6.54074
 Alpha  occ. eigenvalues --   -2.57295  -2.57284  -2.57283  -2.57258  -2.57258
 Alpha  occ. eigenvalues --   -0.79886  -0.62308  -0.55441  -0.36599  -0.36595
 Alpha  occ. eigenvalues --   -0.31984  -0.22750  -0.22750  -0.09407  -0.09406
 Alpha  occ. eigenvalues --   -0.09267
 Alpha virt. eigenvalues --    0.20739   0.23685   0.28844   0.28851   0.43548
 Alpha virt. eigenvalues --    0.46761   0.46764   0.47483   0.47485   0.52921
 Alpha virt. eigenvalues --    0.56465   0.56471   0.62239   0.72222   0.73830
 Alpha virt. eigenvalues --    0.77003   0.77008   0.88000   0.94802   0.94803
 Alpha virt. eigenvalues --    0.95503   0.95506   1.00280   1.02904   1.02906
 Alpha virt. eigenvalues --    1.08969   1.08971   1.18742   1.25530   1.32927
 Alpha virt. eigenvalues --    1.32931   1.63146   1.66250   1.66256   1.87593
 Alpha virt. eigenvalues --    1.87595   1.89035   2.06457   2.17099   2.17107
 Alpha virt. eigenvalues --    2.27115   2.27120   2.28315   2.39090   2.39097
 Alpha virt. eigenvalues --    2.54686   2.55550   2.60200   2.60207   2.70618
 Alpha virt. eigenvalues --    2.70625   3.10936   3.30142   3.91361   3.91379
 Alpha virt. eigenvalues --    4.56485   4.56487   4.57474   4.57479   4.71127
 Alpha virt. eigenvalues --    6.79426   7.81958   7.81961   7.87937   9.86142
 Alpha virt. eigenvalues --   24.08921  25.69976  25.69979  26.24234  48.38092
 Alpha virt. eigenvalues --  215.91343 290.98533 290.98535 291.045571020.86697
          Condensed to atoms (all electrons):
               1          2          3          4          5          6
     1  C    5.068514   0.409417   0.409406   0.409453   0.128948  -0.037950
     2  H    0.409417   0.506002  -0.020218  -0.020189  -0.059829  -0.004774
     3  H    0.409406  -0.020218   0.506041  -0.020216  -0.059820  -0.004767
     4  H    0.409453  -0.020189  -0.020216   0.505838  -0.059818  -0.004813
     5  Cl   0.128948  -0.059829  -0.059820  -0.059818  17.313087   0.011773
     6  Br  -0.037950  -0.004774  -0.004767  -0.004813   0.011773  35.947312
 Mulliken charges:
               1
     1  C   -0.387788
     2  H    0.189591
     3  H    0.189573
     4  H    0.189745
     5  Cl  -0.274340
     6  Br  -0.906780
 Sum of Mulliken charges =  -1.00000
 Mulliken charges with hydrogens summed into heavy atoms:
               1
     1  C    0.181121
     5  Cl  -0.274340
     6  Br  -0.906780
 Electronic spatial extent (au):  <R**2>=           1099.7465
 Charge=             -1.0000 electrons
 Dipole moment (field-independent basis, Debye):
    X=              3.0926    Y=              0.0007    Z=              0.0025  Tot=              3.0926
 Quadrupole moment (field-independent basis, Debye-Ang):
   XX=            -71.9384   YY=            -43.1796   ZZ=            -43.1784
   XY=              0.0002   XZ=              0.0016   YZ=             -0.0006
 Traceless Quadrupole moment (field-independent basis, Debye-Ang):
   XX=            -19.1729   YY=              9.5859   ZZ=              9.5871
   XY=              0.0002   XZ=              0.0016   YZ=             -0.0006
 Octapole moment (field-independent basis, Debye-Ang**2):
  XXX=            -79.7967  YYY=              0.2636  ZZZ=             -0.8818  XYY=            -16.2041
  XXY=              0.0008  XXZ=              0.0001  XZZ=            -16.2068  YZZ=             -0.2639
  YYZ=              0.8745  XYZ=             -0.0004
 Hexadecapole moment (field-independent basis, Debye-Ang**3):
 XXXX=          -1461.5978 YYYY=            -63.7506 ZZZZ=            -63.7520 XXXY=             -0.0056
 XXXZ=             -0.0458 YYYX=              0.2722 YYYZ=              0.0008 ZZZX=             -0.9295
 ZZZY=             -0.0018 XXYY=           -230.5148 XXZZ=           -230.5154 YYZZ=            -21.2473
 XXYZ=             -0.0013 YYXZ=              0.9004 ZZXY=             -0.2738
 N-N= 1.745027993913D+02 E-N=-7.703995060971D+03  KE= 3.070266705552D+03
 Calling FoFJK, ICntrl=      2127 FMM=F ISym2X=0 I1Cent= 0 IOpClX= 0 NMat=1 NMatS=1 NMatT=0.
 -------------------------------------------------------------------
 Center     Atomic                   Forces (Hartrees/Bohr)
 Number     Number              X              Y              Z
 -------------------------------------------------------------------
      1        6           0.008819492    0.000001690    0.000001974
      2        1           0.000299417   -0.000258848    0.000188078
      3        1           0.000297745    0.000301728    0.000141187
      4        1           0.000298507   -0.000027769   -0.000310154
      5       17           0.003454305   -0.000005768   -0.000010375
      6       35          -0.013169466   -0.000011033   -0.000010709
 -------------------------------------------------------------------
 Cartesian Forces:  Max     0.013169466 RMS     0.003827740

 GradGradGradGradGradGradGradGradGradGradGradGradGradGradGradGradGradGrad
 Berny optimization.
 Search for a local minimum.
 Step number   1 out of a maximum of    2
 All quantities printed in internal units (Hartrees-Bohrs-Radians)
 Second derivative matrix not updated -- first step.
 The second derivative matrix:
                          X1        Y1        Z1        X2        Y2
           X1           0.51951
           Y1           0.00001   0.65330
           Z1           0.00017  -0.00006   0.65335
           X2          -0.09795  -0.07560   0.05410   0.08197
           Y2          -0.06610  -0.24763   0.11715   0.07013   0.24128
           Z2           0.04731   0.11717  -0.16795  -0.05020  -0.12895
           X3          -0.09793   0.08464   0.03842   0.00797  -0.01064
           Y3           0.07401  -0.28925  -0.09319   0.00838  -0.01192
           Z3           0.03360  -0.09320  -0.12636  -0.01247   0.01827
           X4          -0.09819  -0.00908  -0.09283   0.00801   0.00662
           Y4          -0.00794  -0.08637  -0.02391   0.01455   0.01380
           Z4          -0.08122  -0.02391  -0.32899  -0.00393  -0.00342
           X5          -0.22543   0.00002   0.00014   0.00001  -0.00000
           Y5           0.00002  -0.03004   0.00000  -0.01746   0.00447
           Z5           0.00014   0.00000  -0.03005   0.01250  -0.00306
           X6           0.00000   0.00000   0.00000   0.00000   0.00000
           Y6           0.00000   0.00000   0.00000   0.00000   0.00000
           Z6           0.00000   0.00000   0.00000   0.00000   0.00000
                          Z2        X3        Y3        Z3        X4
           Z2           0.15355
           X3          -0.01061   0.08195
           Y3          -0.01218  -0.07852   0.28708
           Z3           0.01888  -0.03565   0.10257   0.10779
           X4           0.01350   0.00800  -0.00387   0.01452   0.08220
           Y4           0.02701  -0.01503   0.00854  -0.03006   0.00842
           Z4          -0.00686  -0.00103   0.00038  -0.00161   0.08617
           X5           0.00000   0.00001   0.00000   0.00000  -0.00002
           Y5          -0.00304   0.01956   0.00555   0.00242  -0.00209
           Z5           0.00238   0.00888   0.00243   0.00130  -0.02136
           X6           0.00000   0.00000   0.00000   0.00000   0.00000
           Y6           0.00000   0.00000   0.00000   0.00000   0.00000
           Z6           0.00000   0.00000   0.00000   0.00000   0.00000
                          Y4        Z4        X5        Y5        Z5
           Y4           0.06378
           Z4           0.02633   0.33084
           X5           0.00000   0.00000   0.22543
           Y5           0.00026   0.00063  -0.00003   0.01975
           Z5           0.00063   0.00662  -0.00015  -0.00000   0.01975
           X6           0.00000   0.00000   0.00000   0.00000   0.00000
           Y6           0.00000   0.00000   0.00000   0.00000   0.00000
           Z6           0.00000   0.00000   0.00000   0.00000   0.00000
                          X6        Y6        Z6
           X6           1.00000
           Y6           0.00000   1.00000
           Z6           0.00000   0.00000   1.00000
 ITU=  0
     Eigenvalues ---    0.02966   0.02966   0.06953   0.06953   0.08841
     Eigenvalues ---    0.13674   0.13675   0.29035   0.47176   0.73329
     Eigenvalues ---    0.94278   0.94290
 Angle between quadratic step and forces=  27.74 degrees.
 Linear search not attempted -- first point.
 B after Tr=    -0.006265   -0.000078   -0.000107
         Rot=    1.000000    0.000000    0.000004   -0.000003 Ang=   0.00 deg.
 Variable       Old X    -DE/DX   Delta X   Delta X   Delta X     New X
                                 (Linear)    (Quad)   (Total)
    X1        2.42839   0.00882   0.00000   0.02141   0.01514   2.44354
    Y1        0.00034   0.00000   0.00000   0.00012   0.00006   0.00040
    Z1        0.00219   0.00000   0.00000   0.00016   0.00007   0.00226
    X2        1.82461   0.00030   0.00000   0.00864   0.00237   1.82698
    Y2       -1.58420  -0.00026   0.00000   0.00188   0.00181  -1.58238
    Z2        1.13684   0.00019   0.00000  -0.00106  -0.00116   1.13568
    X3        1.82476   0.00030   0.00000   0.00875   0.00247   1.82722
    Y3        1.77485   0.00030   0.00000  -0.00178  -0.00185   1.77300
    Z3        0.80801   0.00014   0.00000  -0.00068  -0.00077   0.80724
    X4        1.82202   0.00030   0.00000   0.00854   0.00229   1.82430
    Y4       -0.18897  -0.00003   0.00000   0.00034   0.00027  -0.18870
    Z4       -1.93665  -0.00031   0.00000   0.00235   0.00226  -1.93439
    X5        5.92439   0.00345   0.00000   0.01157   0.00530   5.92969
    Y5       -0.00009  -0.00001   0.00000  -0.00010  -0.00014  -0.00024
    Z5       -0.00036  -0.00001   0.00000  -0.00013  -0.00019  -0.00055
    X6       -3.06423  -0.01317   0.00000  -0.02131  -0.02757  -3.09180
    Y6       -0.00004  -0.00001   0.00000  -0.00006  -0.00015  -0.00019
    Z6       -0.00028  -0.00001   0.00000  -0.00008  -0.00021  -0.00050
         Item               Value     Threshold  Converged?
 Maximum Force            0.013169     0.000450     NO 
 RMS     Force            0.003828     0.000300     NO 
 Maximum Displacement     0.027574     0.001800     NO 
 RMS     Displacement     0.007633     0.001200     NO 
 Predicted change in Energy=-1.043793D-04
 GradGradGradGradGradGradGradGradGradGradGradGradGradGradGradGradGradGrad

 1\1\GINC-FS\Force\RM062X\6-311G(d,p)\C1H3Br1Cl1(1-)\XINYAN\22-Jan-2019
 \0\\# M062X/6-311G** force nosymm int=ultrafine\\Title\\-1,1\C,1.28505
 ,0.00018,0.00116\H,0.96554,-0.83832,0.60159\H,0.96562,0.93921,0.42758\
 H,0.96417,-0.1,-1.02483\Cl,3.13505,-0.00005,-0.00019\Br,-1.62152,-0.00
 002,-0.00015\\Version=ES64L-G16RevA.03\HF=-3074.3552588\RMSD=3.119e-09
 \RMSF=3.828e-03\Dipole=1.4381658,0.0002708,0.0010797\Quadrupole=-14.25
 46122,7.1268693,7.1277429,0.0001362,0.0012044,-0.0004229\PG=C01 [X(C1H
 3Br1Cl1)]\\@


 YOU ARE IN A MAZE OF TWISTY LITTLE PASSAGES.
 Job cpu time:       0 days  0 hours  0 minutes 35.8 seconds.
 Elapsed time:       0 days  0 hours  0 minutes  7.7 seconds.
 File lengths (MBytes):  RWF=     10 Int=      0 D2E=      0 Chk=      2 Scr=      1
 Normal termination of Gaussian 16 at Tue Jan 22 16:55:37 2019.
