 Entering Gaussian System, Link 0=g16
 Input=CH3BrCl-58.gjf
 Output=CH3BrCl-58.log
 Initial command:
 /home/xinyan/g16/l1.exe "/scratch/tmp/Gau-15756.inp" -scrdir="/scratch/tmp/"
 Entering Link 1 = /home/xinyan/g16/l1.exe PID=     15757.
  
 Copyright (c) 1988,1990,1992,1993,1995,1998,2003,2009,2016,
            Gaussian, Inc.  All Rights Reserved.
  
 This is part of the Gaussian(R) 16 program.  It is based on
 the Gaussian(R) 09 system (copyright 2009, Gaussian, Inc.),
 the Gaussian(R) 03 system (copyright 2003, Gaussian, Inc.),
 the Gaussian(R) 98 system (copyright 1998, Gaussian, Inc.),
 the Gaussian(R) 94 system (copyright 1995, Gaussian, Inc.),
 the Gaussian 92(TM) system (copyright 1992, Gaussian, Inc.),
 the Gaussian 90(TM) system (copyright 1990, Gaussian, Inc.),
 the Gaussian 88(TM) system (copyright 1988, Gaussian, Inc.),
 the Gaussian 86(TM) system (copyright 1986, Carnegie Mellon
 University), and the Gaussian 82(TM) system (copyright 1983,
 Carnegie Mellon University). Gaussian is a federally registered
 trademark of Gaussian, Inc.
  
 This software contains proprietary and confidential information,
 including trade secrets, belonging to Gaussian, Inc.
  
 This software is provided under written license and may be
 used, copied, transmitted, or stored only in accord with that
 written license.
  
 The following legend is applicable only to US Government
 contracts under FAR:
  
                    RESTRICTED RIGHTS LEGEND
  
 Use, reproduction and disclosure by the US Government is
 subject to restrictions as set forth in subparagraphs (a)
 and (c) of the Commercial Computer Software - Restricted
 Rights clause in FAR 52.227-19.
  
 Gaussian, Inc.
 340 Quinnipiac St., Bldg. 40, Wallingford CT 06492
  
  
 ---------------------------------------------------------------
 Warning -- This program may not be used in any manner that
 competes with the business of Gaussian, Inc. or will provide
 assistance to any competitor of Gaussian, Inc.  The licensee
 of this program is prohibited from giving any competitor of
 Gaussian, Inc. access to this program.  By using this program,
 the user acknowledges that Gaussian, Inc. is engaged in the
 business of creating and licensing software in the field of
 computational chemistry and represents and warrants to the
 licensee that it is not a competitor of Gaussian, Inc. and that
 it will not use this program in any manner prohibited above.
 ---------------------------------------------------------------
  

 Cite this work as:
 Gaussian 16, Revision A.03,
 M. J. Frisch, G. W. Trucks, H. B. Schlegel, G. E. Scuseria, 
 M. A. Robb, J. R. Cheeseman, G. Scalmani, V. Barone, 
 G. A. Petersson, H. Nakatsuji, X. Li, M. Caricato, A. V. Marenich, 
 J. Bloino, B. G. Janesko, R. Gomperts, B. Mennucci, H. P. Hratchian, 
 J. V. Ortiz, A. F. Izmaylov, J. L. Sonnenberg, D. Williams-Young, 
 F. Ding, F. Lipparini, F. Egidi, J. Goings, B. Peng, A. Petrone, 
 T. Henderson, D. Ranasinghe, V. G. Zakrzewski, J. Gao, N. Rega, 
 G. Zheng, W. Liang, M. Hada, M. Ehara, K. Toyota, R. Fukuda, 
 J. Hasegawa, M. Ishida, T. Nakajima, Y. Honda, O. Kitao, H. Nakai, 
 T. Vreven, K. Throssell, J. A. Montgomery, Jr., J. E. Peralta, 
 F. Ogliaro, M. J. Bearpark, J. J. Heyd, E. N. Brothers, K. N. Kudin, 
 V. N. Staroverov, T. A. Keith, R. Kobayashi, J. Normand, 
 K. Raghavachari, A. P. Rendell, J. C. Burant, S. S. Iyengar, 
 J. Tomasi, M. Cossi, J. M. Millam, M. Klene, C. Adamo, R. Cammi, 
 J. W. Ochterski, R. L. Martin, K. Morokuma, O. Farkas, 
 J. B. Foresman, and D. J. Fox, Gaussian, Inc., Wallingford CT, 2016.
 
 ******************************************
 Gaussian 16:  ES64L-G16RevA.03 25-Dec-2016
                22-Jan-2019 
 ******************************************
 %nproc=5
 Will use up to    5 processors via shared memory.
 -------------------------------------------
 # M062X/6-311G** force nosymm int=ultrafine
 -------------------------------------------
 1/10=7,30=1,38=1/1,3;
 2/12=2,15=1,17=6,18=5,40=1/2;
 3/5=4,6=6,7=101,11=2,25=1,30=1,71=1,74=-55,75=-5/1,2,3;
 4//1;
 5/5=2,38=5/2;
 6/7=2,8=2,9=2,10=2,28=1/1;
 7/29=1,30=1/1,2,3,16;
 1/10=7,30=1/3;
 99//99;
 -----
 Title
 -----
 Symbolic Z-matrix:
 Charge = -1 Multiplicity = 1
 C                     1.43202   0.00336   0.00357 
 H                     1.09759  -0.82844   0.60639 
 H                     1.09094   0.94281   0.42521 
 H                     1.0939   -0.09978  -1.01795 
 Cl                    3.26237  -0.00059  -0.0003 
 Br                   -1.70523  -0.00044  -0.00058 
 

 GradGradGradGradGradGradGradGradGradGradGradGradGradGradGradGradGradGrad
 Berny optimization.
 Initialization pass.
 Trust Radius=3.00D-01 FncErr=1.00D-07 GrdErr=1.00D-07 EigMax=2.50D+02 EigMin=1.00D-04
 Number of steps in this run=      2 maximum allowed number of steps=      2.
 GradGradGradGradGradGradGradGradGradGradGradGradGradGradGradGradGradGrad

                          Input orientation:                          
 ---------------------------------------------------------------------
 Center     Atomic      Atomic             Coordinates (Angstroms)
 Number     Number       Type             X           Y           Z
 ---------------------------------------------------------------------
      1          6           0        1.432020    0.003360    0.003570
      2          1           0        1.097590   -0.828440    0.606390
      3          1           0        1.090940    0.942810    0.425210
      4          1           0        1.093900   -0.099780   -1.017950
      5         17           0        3.262370   -0.000590   -0.000300
      6         35           0       -1.705230   -0.000440   -0.000580
 ---------------------------------------------------------------------
                    Distance matrix (angstroms):
                    1          2          3          4          5
     1  C    0.000000
     2  H    1.080336   0.000000
     3  H    1.084750   1.780505   0.000000
     4  H    1.080956   1.780292   1.780369   0.000000
     5  Cl   1.830358   2.395763   2.405446   2.397439   0.000000
     6  Br   3.137255   2.984928   2.981541   2.979939   4.967600
                    6
     6  Br   0.000000
 Symmetry turned off by external request.
 This structure is nearly, but not quite of a higher symmetry.
 Consider Symm=Loose if the higher symmetry is desired.
 Stoichiometry    CH3BrCl(1-)
 Framework group  C1[X(CH3BrCl)]
 Deg. of freedom    12
 Full point group                 C1      NOp   1
 Rotational constants (GHZ):         158.1773425           0.8003089           0.8003080
 Standard basis: 6-311G(d,p) (5D, 7F)
   106 basis functions,   195 primitive gaussians,   111 cartesian basis functions
    31 alpha electrons       31 beta electrons
       nuclear repulsion energy       167.8681858523 Hartrees.
 NAtoms=    6 NActive=    6 NUniq=    6 SFac= 1.00D+00 NAtFMM=   60 NAOKFM=F Big=F
 Integral buffers will be    131072 words long.
 Raffenetti 2 integral format.
 Two-electron integral symmetry is turned off.
 One-electron integrals computed using PRISM.
 NBasis=   106 RedAO= T EigKep=  1.11D-02  NBF=   106
 NBsUse=   106 1.00D-06 EigRej= -1.00D+00 NBFU=   106
 ExpMin= 1.03D-01 ExpMax= 4.40D+05 ExpMxC= 1.51D+04 IAcc=3 IRadAn=         5 AccDes= 0.00D+00
 Harris functional with IExCor= 1009 and IRadAn=       5 diagonalized for initial guess.
 HarFok:  IExCor= 1009 AccDes= 0.00D+00 IRadAn=         5 IDoV= 1 UseB2=F ITyADJ=14
 ICtDFT=  3500011 ScaDFX=  1.000000  1.000000  1.000000  1.000000
 FoFCou: FMM=F IPFlag=           0 FMFlag=      100000 FMFlg1=           0
         NFxFlg=           0 DoJE=T BraDBF=F KetDBF=T FulRan=T
         wScrn=  0.000000 ICntrl=       500 IOpCl=  0 I1Cent=   200000004 NGrid=           0
         NMat0=    1 NMatS0=      1 NMatT0=    0 NMatD0=    1 NMtDS0=    0 NMtDT0=    0
 Symmetry not used in FoFCou.
 Keep R1 ints in memory in canonical form, NReq=20756204.
 Requested convergence on RMS density matrix=1.00D-08 within 128 cycles.
 Requested convergence on MAX density matrix=1.00D-06.
 Requested convergence on             energy=1.00D-06.
 No special actions if energy rises.
 Integral accuracy reduced to 1.0D-05 until final iterations.
 Initial convergence to 1.0D-05 achieved.  Increase integral accuracy.
 SCF Done:  E(RM062X) =  -3074.35841855     A.U. after   13 cycles
            NFock= 13  Conv=0.44D-08     -V/T= 2.0013

 **********************************************************************

            Population analysis using the SCF density.

 **********************************************************************

 Alpha  occ. eigenvalues -- -485.03852-102.53225 -63.03065 -56.85652 -56.85647
 Alpha  occ. eigenvalues --  -56.85647 -10.44737  -9.67432  -8.71652  -7.39888
 Alpha  occ. eigenvalues --   -7.39315  -7.39315  -6.53806  -6.53775  -6.53774
 Alpha  occ. eigenvalues --   -2.56993  -2.56983  -2.56983  -2.56957  -2.56957
 Alpha  occ. eigenvalues --   -0.81113  -0.62680  -0.55156  -0.37268  -0.37142
 Alpha  occ. eigenvalues --   -0.33153  -0.23525  -0.23512  -0.09096  -0.09045
 Alpha  occ. eigenvalues --   -0.09044
 Alpha virt. eigenvalues --    0.20066   0.23490   0.28266   0.28308   0.42817
 Alpha virt. eigenvalues --    0.46106   0.46160   0.46824   0.46830   0.54189
 Alpha virt. eigenvalues --    0.56619   0.56630   0.58761   0.71395   0.74738
 Alpha virt. eigenvalues --    0.76239   0.76369   0.86173   0.95187   0.95190
 Alpha virt. eigenvalues --    0.96084   0.96095   0.99802   1.01273   1.01375
 Alpha virt. eigenvalues --    1.07962   1.07966   1.12074   1.24886   1.32181
 Alpha virt. eigenvalues --    1.32228   1.62946   1.65700   1.65756   1.86627
 Alpha virt. eigenvalues --    1.86644   1.87564   2.08512   2.17770   2.17790
 Alpha virt. eigenvalues --    2.25334   2.26129   2.26180   2.38883   2.38942
 Alpha virt. eigenvalues --    2.51822   2.53708   2.58943   2.59250   2.68981
 Alpha virt. eigenvalues --    2.69309   3.06312   3.31324   3.90327   3.91144
 Alpha virt. eigenvalues --    4.56761   4.56763   4.57462   4.57467   4.66863
 Alpha virt. eigenvalues --    6.78388   7.82067   7.82069   7.86542   9.85488
 Alpha virt. eigenvalues --   24.07692  25.69099  25.69137  26.22476  48.37181
 Alpha virt. eigenvalues --  215.90695 290.98591 290.98595 291.029071020.85430
          Condensed to atoms (all electrons):
               1          2          3          4          5          6
     1  C    5.062305   0.402950   0.402110   0.402861   0.145695  -0.022703
     2  H    0.402950   0.503095  -0.020776  -0.020387  -0.057669   0.004072
     3  H    0.402110  -0.020776   0.503568  -0.020820  -0.056571   0.004205
     4  H    0.402861  -0.020387  -0.020820   0.502766  -0.057488   0.004097
     5  Cl   0.145695  -0.057669  -0.056571  -0.057488  17.265148   0.006414
     6  Br  -0.022703   0.004072   0.004205   0.004097   0.006414  35.931141
 Mulliken charges:
               1
     1  C   -0.393218
     2  H    0.188715
     3  H    0.188285
     4  H    0.188971
     5  Cl  -0.245529
     6  Br  -0.927225
 Sum of Mulliken charges =  -1.00000
 Mulliken charges with hydrogens summed into heavy atoms:
               1
     1  C    0.172754
     5  Cl  -0.245529
     6  Br  -0.927225
 Electronic spatial extent (au):  <R**2>=           1195.8390
 Charge=             -1.0000 electrons
 Dipole moment (field-independent basis, Debye):
    X=              3.8295    Y=              0.0061    Z=              0.0070  Tot=              3.8295
 Quadrupole moment (field-independent basis, Debye-Ang):
   XX=            -72.5902   YY=            -43.1960   ZZ=            -43.1907
   XY=             -0.0105   XZ=             -0.0023   YZ=             -0.0034
 Traceless Quadrupole moment (field-independent basis, Debye-Ang):
   XX=            -19.5979   YY=              9.7963   ZZ=              9.8016
   XY=             -0.0105   XZ=             -0.0023   YZ=             -0.0034
 Octapole moment (field-independent basis, Debye-Ang**2):
  XXX=            -79.1933  YYY=              0.2414  ZZZ=             -0.8909  XYY=            -16.7030
  XXY=             -0.0555  XXZ=             -0.0213  XZZ=            -16.6989  YZZ=             -0.2835
  YYZ=              0.8555  XYZ=             -0.0070
 Hexadecapole moment (field-independent basis, Debye-Ang**3):
 XXXX=          -1588.6510 YYYY=            -63.7430 ZZZZ=            -63.7347 XXXY=             -0.2961
 XXXZ=             -0.2691 YYYX=              0.2307 YYYZ=              0.0047 ZZZX=             -1.1423
 ZZZY=             -0.0182 XXYY=           -249.5427 XXZZ=           -249.5316 YYZZ=            -21.2395
 XXYZ=             -0.0130 YYXZ=              0.9611 ZZXY=             -0.3469
 N-N= 1.678681858523D+02 E-N=-7.690558130667D+03  KE= 3.070214670398D+03
 Calling FoFJK, ICntrl=      2127 FMM=F ISym2X=0 I1Cent= 0 IOpClX= 0 NMat=1 NMatS=1 NMatT=0.
 -------------------------------------------------------------------
 Center     Atomic                   Forces (Hartrees/Bohr)
 Number     Number              X              Y              Z
 -------------------------------------------------------------------
      1        6           0.000778079    0.002277430    0.000671015
      2        1          -0.000650266   -0.000930336    0.000466533
      3        1           0.000997588   -0.001360915   -0.000586328
      4        1          -0.000407608   -0.000279703   -0.000610010
      5       17           0.002227563    0.000337618    0.000094025
      6       35          -0.002945355   -0.000044095   -0.000035236
 -------------------------------------------------------------------
 Cartesian Forces:  Max     0.002945355 RMS     0.001186008

 GradGradGradGradGradGradGradGradGradGradGradGradGradGradGradGradGradGrad
 Berny optimization.
 Search for a local minimum.
 Step number   1 out of a maximum of    2
 All quantities printed in internal units (Hartrees-Bohrs-Radians)
 Second derivative matrix not updated -- first step.
 The second derivative matrix:
                          X1        Y1        Z1        X2        Y2
           X1           0.54512
           Y1          -0.00043   0.63982
           Z1           0.00011  -0.00230   0.64287
           X2          -0.10202  -0.07827   0.05675   0.08544
           Y2          -0.06789  -0.24314   0.11730   0.07220   0.23730
           Z2           0.04919   0.11719  -0.16620  -0.05244  -0.12862
           X3          -0.10197   0.08797   0.03945   0.00826  -0.01099
           Y3           0.07625  -0.28180  -0.09025   0.00870  -0.01212
           Z3           0.03421  -0.09029  -0.12126  -0.01271   0.01812
           X4          -0.10250  -0.00972  -0.09676   0.00833   0.00668
           Y4          -0.00848  -0.08369  -0.02470   0.01487   0.01324
           Z4          -0.08398  -0.02456  -0.32427  -0.00426  -0.00355
           X5          -0.23864   0.00045   0.00044  -0.00001   0.00000
           Y5           0.00055  -0.03118  -0.00004  -0.01750   0.00473
           Z5           0.00047  -0.00004  -0.03114   0.01266  -0.00325
           X6           0.00000   0.00000   0.00000   0.00000   0.00000
           Y6           0.00000   0.00000   0.00000   0.00000   0.00000
           Z6           0.00000   0.00000   0.00000   0.00000   0.00000
                          Z2        X3        Y3        Z3        X4
           Z2           0.15296
           X3          -0.01058   0.08533
           Y3          -0.01190  -0.08128   0.28026
           Z3           0.01796  -0.03645   0.09914   0.10389
           X4           0.01384   0.00832  -0.00369   0.01494   0.08590
           Y4           0.02652  -0.01529   0.00770  -0.02952   0.00890
           Z4          -0.00726  -0.00121   0.00044  -0.00197   0.08943
           X5          -0.00000   0.00006   0.00002   0.00001  -0.00005
           Y5          -0.00319   0.01960   0.00597   0.00255  -0.00218
           Z5           0.00254   0.00879   0.00257   0.00138  -0.02145
           X6           0.00000   0.00000   0.00000   0.00000   0.00000
           Y6           0.00000   0.00000   0.00000   0.00000   0.00000
           Z6           0.00000   0.00000   0.00000   0.00000   0.00000
                          Y4        Z4        X5        Y5        Z5
           Y4           0.06245
           Z4           0.02697   0.32647
           X5           0.00000   0.00002   0.23864
           Y5           0.00031   0.00069  -0.00047   0.02018
           Z5           0.00073   0.00703  -0.00046  -0.00001   0.02020
           X6           0.00000   0.00000   0.00000   0.00000   0.00000
           Y6           0.00000   0.00000   0.00000   0.00000   0.00000
           Z6           0.00000   0.00000   0.00000   0.00000   0.00000
                          X6        Y6        Z6
           X6           1.00000
           Y6           0.00000   1.00000
           Z6           0.00000   0.00000   1.00000
 ITU=  0
     Eigenvalues ---    0.02688   0.02688   0.07029   0.07051   0.09114
     Eigenvalues ---    0.13342   0.13402   0.28804   0.47508   0.76629
     Eigenvalues ---    0.92331   0.93214
 Angle between quadratic step and forces=  50.27 degrees.
 Linear search not attempted -- first point.
 B after Tr=     0.000039   -0.000409   -0.000240
         Rot=    1.000000   -0.000001    0.000070   -0.000227 Ang=  -0.03 deg.
 Variable       Old X    -DE/DX   Delta X   Delta X   Delta X     New X
                                 (Linear)    (Quad)   (Total)
    X1        2.70613   0.00078   0.00000   0.00242   0.00246   2.70859
    Y1        0.00635   0.00228   0.00000  -0.00045   0.00037   0.00672
    Z1        0.00675   0.00067   0.00000   0.00006   0.00020   0.00695
    X2        2.07414  -0.00065   0.00000  -0.00781  -0.00722   2.06692
    Y2       -1.56552  -0.00093   0.00000  -0.00066  -0.00013  -1.56566
    Z2        1.14591   0.00047   0.00000   0.00046   0.00050   1.14641
    X3        2.06158   0.00100   0.00000   0.00903   0.00815   2.06973
    Y3        1.78165  -0.00136   0.00000  -0.00286  -0.00234   1.77932
    Z3        0.80353  -0.00059   0.00000  -0.00107  -0.00102   0.80251
    X4        2.06717  -0.00041   0.00000  -0.00554  -0.00514   2.06203
    Y4       -0.18856  -0.00028   0.00000  -0.00020   0.00033  -0.18823
    Z4       -1.92365  -0.00061   0.00000   0.00021   0.00026  -1.92338
    X5        6.16499   0.00223   0.00000   0.00644   0.00648   6.17147
    Y5       -0.00111   0.00034   0.00000   0.00144   0.00383   0.00271
    Z5       -0.00057   0.00009   0.00000   0.00026   0.00089   0.00032
    X6       -3.22242  -0.00295   0.00000  -0.00477  -0.00473  -3.22714
    Y6       -0.00083  -0.00004   0.00000  -0.00019  -0.00206  -0.00289
    Z6       -0.00110  -0.00004   0.00000  -0.00014  -0.00083  -0.00193
         Item               Value     Threshold  Converged?
 Maximum Force            0.002945     0.000450     NO 
 RMS     Force            0.001186     0.000300     NO 
 Maximum Displacement     0.008150     0.001800     NO 
 RMS     Displacement     0.003674     0.001200     NO 
 Predicted change in Energy=-2.357844D-05
 GradGradGradGradGradGradGradGradGradGradGradGradGradGradGradGradGradGrad

 1\1\GINC-FS\Force\RM062X\6-311G(d,p)\C1H3Br1Cl1(1-)\XINYAN\22-Jan-2019
 \0\\# M062X/6-311G** force nosymm int=ultrafine\\Title\\-1,1\C,1.43202
 ,0.00336,0.00357\H,1.09759,-0.82844,0.60639\H,1.09094,0.94281,0.42521\
 H,1.0939,-0.09978,-1.01795\Cl,3.26237,-0.00059,-0.0003\Br,-1.70523,-0.
 00044,-0.00058\\Version=ES64L-G16RevA.03\HF=-3074.3584186\RMSD=4.434e-
 09\RMSF=1.186e-03\Dipole=1.743685,0.0026732,0.0030723\Quadrupole=-14.5
 705568,7.2833335,7.2872233,-0.0078102,-0.0017049,-0.0025536\PG=C01 [X(
 C1H3Br1Cl1)]\\@


 THE FIRST AND LAST THING REQUIRED OF GENIUS IS THE LOVE OF TRUTH.

                          -- GOETHE
 Job cpu time:       0 days  0 hours  0 minutes 35.4 seconds.
 Elapsed time:       0 days  0 hours  0 minutes  7.7 seconds.
 File lengths (MBytes):  RWF=     10 Int=      0 D2E=      0 Chk=      2 Scr=      1
 Normal termination of Gaussian 16 at Tue Jan 22 16:57:19 2019.
