 Entering Gaussian System, Link 0=g16
 Input=CH3BrCl-37.gjf
 Output=CH3BrCl-37.log
 Initial command:
 /home/xinyan/g16/l1.exe "/scratch/tmp/Gau-14349.inp" -scrdir="/scratch/tmp/"
 Entering Link 1 = /home/xinyan/g16/l1.exe PID=     14350.
  
 Copyright (c) 1988,1990,1992,1993,1995,1998,2003,2009,2016,
            Gaussian, Inc.  All Rights Reserved.
  
 This is part of the Gaussian(R) 16 program.  It is based on
 the Gaussian(R) 09 system (copyright 2009, Gaussian, Inc.),
 the Gaussian(R) 03 system (copyright 2003, Gaussian, Inc.),
 the Gaussian(R) 98 system (copyright 1998, Gaussian, Inc.),
 the Gaussian(R) 94 system (copyright 1995, Gaussian, Inc.),
 the Gaussian 92(TM) system (copyright 1992, Gaussian, Inc.),
 the Gaussian 90(TM) system (copyright 1990, Gaussian, Inc.),
 the Gaussian 88(TM) system (copyright 1988, Gaussian, Inc.),
 the Gaussian 86(TM) system (copyright 1986, Carnegie Mellon
 University), and the Gaussian 82(TM) system (copyright 1983,
 Carnegie Mellon University). Gaussian is a federally registered
 trademark of Gaussian, Inc.
  
 This software contains proprietary and confidential information,
 including trade secrets, belonging to Gaussian, Inc.
  
 This software is provided under written license and may be
 used, copied, transmitted, or stored only in accord with that
 written license.
  
 The following legend is applicable only to US Government
 contracts under FAR:
  
                    RESTRICTED RIGHTS LEGEND
  
 Use, reproduction and disclosure by the US Government is
 subject to restrictions as set forth in subparagraphs (a)
 and (c) of the Commercial Computer Software - Restricted
 Rights clause in FAR 52.227-19.
  
 Gaussian, Inc.
 340 Quinnipiac St., Bldg. 40, Wallingford CT 06492
  
  
 ---------------------------------------------------------------
 Warning -- This program may not be used in any manner that
 competes with the business of Gaussian, Inc. or will provide
 assistance to any competitor of Gaussian, Inc.  The licensee
 of this program is prohibited from giving any competitor of
 Gaussian, Inc. access to this program.  By using this program,
 the user acknowledges that Gaussian, Inc. is engaged in the
 business of creating and licensing software in the field of
 computational chemistry and represents and warrants to the
 licensee that it is not a competitor of Gaussian, Inc. and that
 it will not use this program in any manner prohibited above.
 ---------------------------------------------------------------
  

 Cite this work as:
 Gaussian 16, Revision A.03,
 M. J. Frisch, G. W. Trucks, H. B. Schlegel, G. E. Scuseria, 
 M. A. Robb, J. R. Cheeseman, G. Scalmani, V. Barone, 
 G. A. Petersson, H. Nakatsuji, X. Li, M. Caricato, A. V. Marenich, 
 J. Bloino, B. G. Janesko, R. Gomperts, B. Mennucci, H. P. Hratchian, 
 J. V. Ortiz, A. F. Izmaylov, J. L. Sonnenberg, D. Williams-Young, 
 F. Ding, F. Lipparini, F. Egidi, J. Goings, B. Peng, A. Petrone, 
 T. Henderson, D. Ranasinghe, V. G. Zakrzewski, J. Gao, N. Rega, 
 G. Zheng, W. Liang, M. Hada, M. Ehara, K. Toyota, R. Fukuda, 
 J. Hasegawa, M. Ishida, T. Nakajima, Y. Honda, O. Kitao, H. Nakai, 
 T. Vreven, K. Throssell, J. A. Montgomery, Jr., J. E. Peralta, 
 F. Ogliaro, M. J. Bearpark, J. J. Heyd, E. N. Brothers, K. N. Kudin, 
 V. N. Staroverov, T. A. Keith, R. Kobayashi, J. Normand, 
 K. Raghavachari, A. P. Rendell, J. C. Burant, S. S. Iyengar, 
 J. Tomasi, M. Cossi, J. M. Millam, M. Klene, C. Adamo, R. Cammi, 
 J. W. Ochterski, R. L. Martin, K. Morokuma, O. Farkas, 
 J. B. Foresman, and D. J. Fox, Gaussian, Inc., Wallingford CT, 2016.
 
 ******************************************
 Gaussian 16:  ES64L-G16RevA.03 25-Dec-2016
                22-Jan-2019 
 ******************************************
 %nproc=5
 Will use up to    5 processors via shared memory.
 -------------------------------------------
 # M062X/6-311G** force nosymm int=ultrafine
 -------------------------------------------
 1/10=7,30=1,38=1/1,3;
 2/12=2,15=1,17=6,18=5,40=1/2;
 3/5=4,6=6,7=101,11=2,25=1,30=1,71=1,74=-55,75=-5/1,2,3;
 4//1;
 5/5=2,38=5/2;
 6/7=2,8=2,9=2,10=2,28=1/1;
 7/29=1,30=1/1,2,3,16;
 1/10=7,30=1/3;
 99//99;
 -----
 Title
 -----
 Symbolic Z-matrix:
 Charge = -1 Multiplicity = 1
 C                     1.08376   0.00014   0.00116 
 H                     0.88913  -0.86014   0.61728 
 H                     0.88915   0.96376   0.43833 
 H                     0.88855  -0.10304  -1.05178 
 Cl                    3.16104  -0.00004  -0.00021 
 Br                   -1.59951  -0.00001  -0.00013 
 

 GradGradGradGradGradGradGradGradGradGradGradGradGradGradGradGradGradGrad
 Berny optimization.
 Initialization pass.
 Trust Radius=3.00D-01 FncErr=1.00D-07 GrdErr=1.00D-07 EigMax=2.50D+02 EigMin=1.00D-04
 Number of steps in this run=      2 maximum allowed number of steps=      2.
 GradGradGradGradGradGradGradGradGradGradGradGradGradGradGradGradGradGrad

                          Input orientation:                          
 ---------------------------------------------------------------------
 Center     Atomic      Atomic             Coordinates (Angstroms)
 Number     Number       Type             X           Y           Z
 ---------------------------------------------------------------------
      1          6           0        1.083760    0.000140    0.001160
      2          1           0        0.889130   -0.860140    0.617280
      3          1           0        0.889150    0.963760    0.438330
      4          1           0        0.888550   -0.103040   -1.051780
      5         17           0        3.161040   -0.000040   -0.000210
      6         35           0       -1.599510   -0.000010   -0.000130
 ---------------------------------------------------------------------
                    Distance matrix (angstroms):
                    1          2          3          4          5
     1  C    0.000000
     2  H    1.075903   0.000000
     3  H    1.075897   1.832658   0.000000
     4  H    1.075842   1.832747   1.832618   0.000000
     5  Cl   2.077280   2.506520   2.506534   2.506116   0.000000
     6  Br   2.683270   2.704505   2.704538   2.703151   4.760550
                    6
     6  Br   0.000000
 Symmetry turned off by external request.
 This structure is nearly, but not quite of a higher symmetry.
 Consider Symm=Loose if the higher symmetry is desired.
 Stoichiometry    CH3BrCl(1-)
 Framework group  C1[X(CH3BrCl)]
 Deg. of freedom    12
 Full point group                 C1      NOp   1
 Rotational constants (GHZ):         149.2994996           0.8874113           0.8874108
 Standard basis: 6-311G(d,p) (5D, 7F)
   106 basis functions,   195 primitive gaussians,   111 cartesian basis functions
    31 alpha electrons       31 beta electrons
       nuclear repulsion energy       174.5738609820 Hartrees.
 NAtoms=    6 NActive=    6 NUniq=    6 SFac= 1.00D+00 NAtFMM=   60 NAOKFM=F Big=F
 Integral buffers will be    131072 words long.
 Raffenetti 2 integral format.
 Two-electron integral symmetry is turned off.
 One-electron integrals computed using PRISM.
 NBasis=   106 RedAO= T EigKep=  1.11D-02  NBF=   106
 NBsUse=   106 1.00D-06 EigRej= -1.00D+00 NBFU=   106
 ExpMin= 1.03D-01 ExpMax= 4.40D+05 ExpMxC= 1.51D+04 IAcc=3 IRadAn=         5 AccDes= 0.00D+00
 Harris functional with IExCor= 1009 and IRadAn=       5 diagonalized for initial guess.
 HarFok:  IExCor= 1009 AccDes= 0.00D+00 IRadAn=         5 IDoV= 1 UseB2=F ITyADJ=14
 ICtDFT=  3500011 ScaDFX=  1.000000  1.000000  1.000000  1.000000
 FoFCou: FMM=F IPFlag=           0 FMFlag=      100000 FMFlg1=           0
         NFxFlg=           0 DoJE=T BraDBF=F KetDBF=T FulRan=T
         wScrn=  0.000000 ICntrl=       500 IOpCl=  0 I1Cent=   200000004 NGrid=           0
         NMat0=    1 NMatS0=      1 NMatT0=    0 NMatD0=    1 NMtDS0=    0 NMtDT0=    0
 Symmetry not used in FoFCou.
 Keep R1 ints in memory in canonical form, NReq=20756204.
 Requested convergence on RMS density matrix=1.00D-08 within 128 cycles.
 Requested convergence on MAX density matrix=1.00D-06.
 Requested convergence on             energy=1.00D-06.
 No special actions if energy rises.
 Integral accuracy reduced to 1.0D-05 until final iterations.
 Initial convergence to 1.0D-05 achieved.  Increase integral accuracy.
 SCF Done:  E(RM062X) =  -3074.34513945     A.U. after   14 cycles
            NFock= 14  Conv=0.44D-08     -V/T= 2.0014

 **********************************************************************

            Population analysis using the SCF density.

 **********************************************************************

 Alpha  occ. eigenvalues -- -485.06402-102.48913 -63.05643 -56.88244 -56.88209
 Alpha  occ. eigenvalues --  -56.88209 -10.45553  -9.63010  -8.74260  -7.35386
 Alpha  occ. eigenvalues --   -7.34936  -7.34936  -6.56494  -6.56337  -6.56336
 Alpha  occ. eigenvalues --   -2.59672  -2.59623  -2.59622  -2.59488  -2.59488
 Alpha  occ. eigenvalues --   -0.74572  -0.63528  -0.57255  -0.36803  -0.36800
 Alpha  occ. eigenvalues --   -0.27068  -0.20803  -0.20803  -0.11374  -0.11373
 Alpha  occ. eigenvalues --   -0.11057
 Alpha virt. eigenvalues --    0.16953   0.22890   0.28841   0.28847   0.44134
 Alpha virt. eigenvalues --    0.46840   0.46842   0.49001   0.49001   0.50577
 Alpha virt. eigenvalues --    0.55098   0.55102   0.66275   0.69550   0.74001
 Alpha virt. eigenvalues --    0.76832   0.76837   0.91539   0.92899   0.92901
 Alpha virt. eigenvalues --    0.93101   0.93103   0.95536   1.08970   1.08975
 Alpha virt. eigenvalues --    1.12186   1.12187   1.22481   1.25446   1.30021
 Alpha virt. eigenvalues --    1.30026   1.59911   1.64310   1.64317   1.76138
 Alpha virt. eigenvalues --    1.91415   1.91418   2.00999   2.14008   2.14009
 Alpha virt. eigenvalues --    2.23589   2.23593   2.28376   2.36113   2.36114
 Alpha virt. eigenvalues --    2.48445   2.60839   2.60840   2.60900   2.75644
 Alpha virt. eigenvalues --    2.75645   3.09059   3.15446   3.89208   3.89219
 Alpha virt. eigenvalues --    4.54370   4.54371   4.55436   4.55437   4.71729
 Alpha virt. eigenvalues --    6.78173   7.79957   7.79960   7.86560   9.84187
 Alpha virt. eigenvalues --   24.08506  25.70136  25.70138  26.15313  48.36569
 Alpha virt. eigenvalues --  215.89118 290.96328 290.96330 291.033861020.85394
          Condensed to atoms (all electrons):
               1          2          3          4          5          6
     1  C    5.006339   0.411985   0.411978   0.412074   0.110455  -0.007782
     2  H    0.411985   0.497030  -0.017187  -0.017150  -0.052538  -0.020510
     3  H    0.411978  -0.017187   0.497049  -0.017163  -0.052533  -0.020507
     4  H    0.412074  -0.017150  -0.017163   0.496958  -0.052620  -0.020600
     5  Cl   0.110455  -0.052538  -0.052533  -0.052620  17.463830   0.015798
     6  Br  -0.007782  -0.020510  -0.020507  -0.020600   0.015798  35.871396
 Mulliken charges:
               1
     1  C   -0.345048
     2  H    0.198370
     3  H    0.198363
     4  H    0.198501
     5  Cl  -0.432392
     6  Br  -0.817795
 Sum of Mulliken charges =  -1.00000
 Mulliken charges with hydrogens summed into heavy atoms:
               1
     1  C    0.250187
     5  Cl  -0.432392
     6  Br  -0.817795
 Electronic spatial extent (au):  <R**2>=           1093.9055
 Charge=             -1.0000 electrons
 Dipole moment (field-independent basis, Debye):
    X=              0.4143    Y=              0.0005    Z=              0.0026  Tot=              0.4144
 Quadrupole moment (field-independent basis, Debye-Ang):
   XX=            -77.6378   YY=            -43.1629   ZZ=            -43.1619
   XY=              0.0002   XZ=              0.0018   YZ=             -0.0004
 Traceless Quadrupole moment (field-independent basis, Debye-Ang):
   XX=            -22.9836   YY=             11.4913   ZZ=             11.4923
   XY=              0.0002   XZ=              0.0018   YZ=             -0.0004
 Octapole moment (field-independent basis, Debye-Ang**2):
  XXX=           -112.2050  YYY=              0.3090  ZZZ=             -1.0289  XYY=            -18.0497
  XXY=              0.0005  XXZ=             -0.0018  XZZ=            -18.0512  YZZ=             -0.3093
  YYZ=              1.0225  XYZ=             -0.0001
 Hexadecapole moment (field-independent basis, Debye-Ang**3):
 XXXX=          -1548.1632 YYYY=            -63.8269 ZZZZ=            -63.8284 XXXY=             -0.0014
 XXXZ=             -0.0276 YYYX=              0.2887 YYYZ=              0.0005 ZZZX=             -0.9627
 ZZZY=             -0.0018 XXYY=           -233.4924 XXZZ=           -233.4927 YYZZ=            -21.2727
 XXYZ=             -0.0012 YYXZ=              0.9497 ZZXY=             -0.2875
 N-N= 1.745738609820D+02 E-N=-7.703798728541D+03  KE= 3.070172598855D+03
 Calling FoFJK, ICntrl=      2127 FMM=F ISym2X=0 I1Cent= 0 IOpClX= 0 NMat=1 NMatS=1 NMatT=0.
 -------------------------------------------------------------------
 Center     Atomic                   Forces (Hartrees/Bohr)
 Number     Number              X              Y              Z
 -------------------------------------------------------------------
      1        6           0.027418446    0.000001594   -0.000014194
      2        1           0.000501553    0.000336130   -0.000238889
      3        1           0.000500031   -0.000380973   -0.000171866
      4        1           0.000487265    0.000040209    0.000413019
      5       17          -0.014295047   -0.000001362    0.000020172
      6       35          -0.014612248    0.000004402   -0.000008242
 -------------------------------------------------------------------
 Cartesian Forces:  Max     0.027418446 RMS     0.008065337

 GradGradGradGradGradGradGradGradGradGradGradGradGradGradGradGradGradGrad
 Berny optimization.
 Search for a local minimum.
 Step number   1 out of a maximum of    2
 All quantities printed in internal units (Hartrees-Bohrs-Radians)
 Second derivative matrix not updated -- first step.
 The second derivative matrix:
                          X1        Y1        Z1        X2        Y2
           X1           0.35092
           Y1           0.00001   0.70681
           Z1           0.00010  -0.00002   0.70690
           X2          -0.07533  -0.04592   0.03288   0.06027
           Y2          -0.04331  -0.26912   0.11929   0.04556   0.25835
           Z2           0.03101   0.11929  -0.18800  -0.03263  -0.13444
           X3          -0.07532   0.05143   0.02333   0.00752  -0.00743
           Y3           0.04851  -0.31155  -0.09481   0.00573  -0.01041
           Z3           0.02200  -0.09481  -0.14557  -0.00929   0.01964
           X4          -0.07539  -0.00553  -0.05637   0.00753   0.00519
           Y4          -0.00522  -0.10497  -0.02445   0.01067   0.01875
           Z4          -0.05318  -0.02446  -0.35217  -0.00244  -0.00280
           X5          -0.12489   0.00001   0.00007   0.00001  -0.00000
           Y5           0.00001  -0.02117   0.00000  -0.01604   0.00243
           Z5           0.00007   0.00000  -0.02116   0.01149  -0.00169
           X6           0.00000   0.00000   0.00000   0.00000   0.00000
           Y6           0.00000   0.00000   0.00000   0.00000   0.00000
           Z6           0.00000   0.00000   0.00000   0.00000   0.00000
                          Z2        X3        Y3        Z3        X4
           Z2           0.16691
           X3          -0.00800   0.06027
           Y3          -0.01273  -0.05103   0.30616
           Z3           0.02449  -0.02315   0.10685   0.11911
           X4           0.00962   0.00753  -0.00322   0.01044   0.06034
           Y4           0.02956  -0.01094   0.01277  -0.03302   0.00548
           Z4          -0.00468  -0.00032  -0.00065   0.00130   0.05595
           X5           0.00000   0.00001   0.00000   0.00000  -0.00001
           Y5          -0.00168   0.01797   0.00303   0.00133  -0.00192
           Z5           0.00127   0.00815   0.00134   0.00068  -0.01964
           X6           0.00000   0.00000   0.00000   0.00000   0.00000
           Y6           0.00000   0.00000   0.00000   0.00000   0.00000
           Z6           0.00000   0.00000   0.00000   0.00000   0.00000
                          Y4        Z4        X5        Y5        Z5
           Y4           0.07334
           Z4           0.02757   0.35194
           X5           0.00000   0.00000   0.12489
           Y5           0.00011   0.00035  -0.00001   0.01561
           Z5           0.00035   0.00361  -0.00007  -0.00000   0.01561
           X6           0.00000   0.00000   0.00000   0.00000   0.00000
           Y6           0.00000   0.00000   0.00000   0.00000   0.00000
           Z6           0.00000   0.00000   0.00000   0.00000   0.00000
                          X6        Y6        Z6
           X6           1.00000
           Y6           0.00000   1.00000
           Z6           0.00000   0.00000   1.00000
 ITU=  0
     Eigenvalues ---    0.03462   0.03462   0.06096   0.06096   0.06676
     Eigenvalues ---    0.15322   0.15324   0.29544   0.44112   0.51569
     Eigenvalues ---    1.00010   1.00024
 Angle between quadratic step and forces=  48.27 degrees.
 Linear search not attempted -- first point.
 B after Tr=    -0.036058    0.000008   -0.000024
         Rot=    1.000000   -0.000000    0.000007    0.000000 Ang=   0.00 deg.
 Variable       Old X    -DE/DX   Delta X   Delta X   Delta X     New X
                                 (Linear)    (Quad)   (Total)
    X1        2.04801   0.02742   0.00000   0.09070   0.05465   2.10266
    Y1        0.00026   0.00000   0.00000  -0.00001  -0.00000   0.00026
    Z1        0.00219  -0.00001   0.00000  -0.00004  -0.00003   0.00216
    X2        1.68021   0.00050   0.00000   0.07462   0.03854   1.71875
    Y2       -1.62543   0.00034   0.00000   0.00291   0.00292  -1.62251
    Z2        1.16649  -0.00024   0.00000  -0.00210  -0.00209   1.16440
    X3        1.68025   0.00050   0.00000   0.07455   0.03848   1.71873
    Y3        1.82124  -0.00038   0.00000  -0.00330  -0.00330   1.81795
    Z3        0.82832  -0.00017   0.00000  -0.00150  -0.00149   0.82683
    X4        1.67912   0.00049   0.00000   0.07428   0.03825   1.71737
    Y4       -0.19472   0.00004   0.00000   0.00034   0.00035  -0.19437
    Z4       -1.98758   0.00041   0.00000   0.00358   0.00359  -1.98399
    X5        5.97350  -0.01430   0.00000  -0.07415  -0.11021   5.86329
    Y5       -0.00008  -0.00000   0.00000   0.00001   0.00002  -0.00006
    Z5       -0.00040   0.00002   0.00000   0.00006   0.00013  -0.00027
    X6       -3.02264  -0.01461   0.00000  -0.02364  -0.05970  -3.08234
    Y6       -0.00002   0.00000   0.00000   0.00000   0.00001  -0.00000
    Z6       -0.00025  -0.00001   0.00000  -0.00003  -0.00010  -0.00034
         Item               Value     Threshold  Converged?
 Maximum Force            0.027418     0.000450     NO 
 RMS     Force            0.008065     0.000300     NO 
 Maximum Displacement     0.110212     0.001800     NO 
 RMS     Displacement     0.035874     0.001200     NO 
 Predicted change in Energy=-5.013319D-04
 GradGradGradGradGradGradGradGradGradGradGradGradGradGradGradGradGradGrad

 1\1\GINC-FS\Force\RM062X\6-311G(d,p)\C1H3Br1Cl1(1-)\XINYAN\22-Jan-2019
 \0\\# M062X/6-311G** force nosymm int=ultrafine\\Title\\-1,1\C,1.08376
 ,0.00014,0.00116\H,0.88913,-0.86014,0.61728\H,0.88915,0.96376,0.43833\
 H,0.88855,-0.10304,-1.05178\Cl,3.16104,-0.00004,-0.00021\Br,-1.59951,-
 0.00001,-0.00013\\Version=ES64L-G16RevA.03\HF=-3074.3451394\RMSD=4.389
 e-09\RMSF=8.065e-03\Dipole=0.377522,0.0002044,0.0011171\Quadrupole=-17
 .0877529,8.5435024,8.5442505,0.0001452,0.0013602,-0.0002773\PG=C01 [X(
 C1H3Br1Cl1)]\\@


 GOD GAVE US TWO ENDS... ONE TO SIT ON...    
 AND THE OTHER TO THINK WITH...              
 YOUR SUCCESS DEPENDS UPON WHICH END YOU     
 USE THE MOST...                             
                                             
 IT'S A CASE OF HEADS YOU WIN TAILS YOU LOSE.
          SOURCE UNKNOWN(IT'S JUST AS WELL.) 
 Job cpu time:       0 days  0 hours  0 minutes 39.1 seconds.
 Elapsed time:       0 days  0 hours  0 minutes  8.7 seconds.
 File lengths (MBytes):  RWF=     10 Int=      0 D2E=      0 Chk=      2 Scr=      1
 Normal termination of Gaussian 16 at Tue Jan 22 16:54:30 2019.
