 Entering Gaussian System, Link 0=g16
 Input=CH3BrCl-3.gjf
 Output=CH3BrCl-3.log
 Initial command:
 /home/xinyan/g16/l1.exe "/scratch/tmp/Gau-11925.inp" -scrdir="/scratch/tmp/"
 Entering Link 1 = /home/xinyan/g16/l1.exe PID=     11926.
  
 Copyright (c) 1988,1990,1992,1993,1995,1998,2003,2009,2016,
            Gaussian, Inc.  All Rights Reserved.
  
 This is part of the Gaussian(R) 16 program.  It is based on
 the Gaussian(R) 09 system (copyright 2009, Gaussian, Inc.),
 the Gaussian(R) 03 system (copyright 2003, Gaussian, Inc.),
 the Gaussian(R) 98 system (copyright 1998, Gaussian, Inc.),
 the Gaussian(R) 94 system (copyright 1995, Gaussian, Inc.),
 the Gaussian 92(TM) system (copyright 1992, Gaussian, Inc.),
 the Gaussian 90(TM) system (copyright 1990, Gaussian, Inc.),
 the Gaussian 88(TM) system (copyright 1988, Gaussian, Inc.),
 the Gaussian 86(TM) system (copyright 1986, Carnegie Mellon
 University), and the Gaussian 82(TM) system (copyright 1983,
 Carnegie Mellon University). Gaussian is a federally registered
 trademark of Gaussian, Inc.
  
 This software contains proprietary and confidential information,
 including trade secrets, belonging to Gaussian, Inc.
  
 This software is provided under written license and may be
 used, copied, transmitted, or stored only in accord with that
 written license.
  
 The following legend is applicable only to US Government
 contracts under FAR:
  
                    RESTRICTED RIGHTS LEGEND
  
 Use, reproduction and disclosure by the US Government is
 subject to restrictions as set forth in subparagraphs (a)
 and (c) of the Commercial Computer Software - Restricted
 Rights clause in FAR 52.227-19.
  
 Gaussian, Inc.
 340 Quinnipiac St., Bldg. 40, Wallingford CT 06492
  
  
 ---------------------------------------------------------------
 Warning -- This program may not be used in any manner that
 competes with the business of Gaussian, Inc. or will provide
 assistance to any competitor of Gaussian, Inc.  The licensee
 of this program is prohibited from giving any competitor of
 Gaussian, Inc. access to this program.  By using this program,
 the user acknowledges that Gaussian, Inc. is engaged in the
 business of creating and licensing software in the field of
 computational chemistry and represents and warrants to the
 licensee that it is not a competitor of Gaussian, Inc. and that
 it will not use this program in any manner prohibited above.
 ---------------------------------------------------------------
  

 Cite this work as:
 Gaussian 16, Revision A.03,
 M. J. Frisch, G. W. Trucks, H. B. Schlegel, G. E. Scuseria, 
 M. A. Robb, J. R. Cheeseman, G. Scalmani, V. Barone, 
 G. A. Petersson, H. Nakatsuji, X. Li, M. Caricato, A. V. Marenich, 
 J. Bloino, B. G. Janesko, R. Gomperts, B. Mennucci, H. P. Hratchian, 
 J. V. Ortiz, A. F. Izmaylov, J. L. Sonnenberg, D. Williams-Young, 
 F. Ding, F. Lipparini, F. Egidi, J. Goings, B. Peng, A. Petrone, 
 T. Henderson, D. Ranasinghe, V. G. Zakrzewski, J. Gao, N. Rega, 
 G. Zheng, W. Liang, M. Hada, M. Ehara, K. Toyota, R. Fukuda, 
 J. Hasegawa, M. Ishida, T. Nakajima, Y. Honda, O. Kitao, H. Nakai, 
 T. Vreven, K. Throssell, J. A. Montgomery, Jr., J. E. Peralta, 
 F. Ogliaro, M. J. Bearpark, J. J. Heyd, E. N. Brothers, K. N. Kudin, 
 V. N. Staroverov, T. A. Keith, R. Kobayashi, J. Normand, 
 K. Raghavachari, A. P. Rendell, J. C. Burant, S. S. Iyengar, 
 J. Tomasi, M. Cossi, J. M. Millam, M. Klene, C. Adamo, R. Cammi, 
 J. W. Ochterski, R. L. Martin, K. Morokuma, O. Farkas, 
 J. B. Foresman, and D. J. Fox, Gaussian, Inc., Wallingford CT, 2016.
 
 ******************************************
 Gaussian 16:  ES64L-G16RevA.03 25-Dec-2016
                22-Jan-2019 
 ******************************************
 %nproc=5
 Will use up to    5 processors via shared memory.
 -------------------------------------------
 # M062X/6-311G** force nosymm int=ultrafine
 -------------------------------------------
 1/10=7,30=1,38=1/1,3;
 2/12=2,15=1,17=6,18=5,40=1/2;
 3/5=4,6=6,7=101,11=2,25=1,30=1,71=1,74=-55,75=-5/1,2,3;
 4//1;
 5/5=2,38=5/2;
 6/7=2,8=2,9=2,10=2,28=1/1;
 7/29=1,30=1/1,2,3,16;
 1/10=7,30=1/3;
 99//99;
 -----
 Title
 -----
 Symbolic Z-matrix:
 Charge = -1 Multiplicity = 1
 C                     0.7998    0.00017   0.00131 
 H                     0.86342  -0.87157   0.62511 
 H                     0.86336   0.97623   0.44444 
 H                     0.86366  -0.10411  -1.06548 
 Cl                    3.21053  -0.00004  -0.0003 
 Br                   -1.57729  -0.00002  -0.00012 
 

 GradGradGradGradGradGradGradGradGradGradGradGradGradGradGradGradGradGrad
 Berny optimization.
 Initialization pass.
 Trust Radius=3.00D-01 FncErr=1.00D-07 GrdErr=1.00D-07 EigMax=2.50D+02 EigMin=1.00D-04
 Number of steps in this run=      2 maximum allowed number of steps=      2.
 GradGradGradGradGradGradGradGradGradGradGradGradGradGradGradGradGradGrad

                          Input orientation:                          
 ---------------------------------------------------------------------
 Center     Atomic      Atomic             Coordinates (Angstroms)
 Number     Number       Type             X           Y           Z
 ---------------------------------------------------------------------
      1          6           0        0.799800    0.000170    0.001310
      2          1           0        0.863420   -0.871570    0.625110
      3          1           0        0.863360    0.976230    0.444440
      4          1           0        0.863660   -0.104110   -1.065480
      5         17           0        3.210530   -0.000040   -0.000300
      6         35           0       -1.577290   -0.000020   -0.000120
 ---------------------------------------------------------------------
                    Distance matrix (angstroms):
                    1          2          3          4          5
     1  C    0.000000
     2  H    1.073827   0.000000
     3  H    1.073824   1.856612   0.000000
     4  H    1.073775   1.856634   1.856608   0.000000
     5  Cl   2.410731   2.580625   2.580718   2.579387   0.000000
     6  Br   2.377090   2.666004   2.665984   2.665345   4.787820
                    6
     6  Br   0.000000
 Symmetry turned off by external request.
 This structure is nearly, but not quite of a higher symmetry.
 Consider Symm=Loose if the higher symmetry is desired.
 Stoichiometry    CH3BrCl(1-)
 Framework group  C1[X(CH3BrCl)]
 Deg. of freedom    12
 Full point group                 C1      NOp   1
 Rotational constants (GHZ):         145.4732605           0.8890545           0.8890544
 Standard basis: 6-311G(d,p) (5D, 7F)
   106 basis functions,   195 primitive gaussians,   111 cartesian basis functions
    31 alpha electrons       31 beta electrons
       nuclear repulsion energy       175.9303152842 Hartrees.
 NAtoms=    6 NActive=    6 NUniq=    6 SFac= 1.00D+00 NAtFMM=   60 NAOKFM=F Big=F
 Integral buffers will be    131072 words long.
 Raffenetti 2 integral format.
 Two-electron integral symmetry is turned off.
 One-electron integrals computed using PRISM.
 NBasis=   106 RedAO= T EigKep=  1.09D-02  NBF=   106
 NBsUse=   106 1.00D-06 EigRej= -1.00D+00 NBFU=   106
 ExpMin= 1.03D-01 ExpMax= 4.40D+05 ExpMxC= 1.51D+04 IAcc=3 IRadAn=         5 AccDes= 0.00D+00
 Harris functional with IExCor= 1009 and IRadAn=       5 diagonalized for initial guess.
 HarFok:  IExCor= 1009 AccDes= 0.00D+00 IRadAn=         5 IDoV= 1 UseB2=F ITyADJ=14
 ICtDFT=  3500011 ScaDFX=  1.000000  1.000000  1.000000  1.000000
 FoFCou: FMM=F IPFlag=           0 FMFlag=      100000 FMFlg1=           0
         NFxFlg=           0 DoJE=T BraDBF=F KetDBF=T FulRan=T
         wScrn=  0.000000 ICntrl=       500 IOpCl=  0 I1Cent=   200000004 NGrid=           0
         NMat0=    1 NMatS0=      1 NMatT0=    0 NMatD0=    1 NMtDS0=    0 NMtDT0=    0
 Symmetry not used in FoFCou.
 Keep R1 ints in memory in canonical form, NReq=20756192.
 Requested convergence on RMS density matrix=1.00D-08 within 128 cycles.
 Requested convergence on MAX density matrix=1.00D-06.
 Requested convergence on             energy=1.00D-06.
 No special actions if energy rises.
 Integral accuracy reduced to 1.0D-05 until final iterations.
 Initial convergence to 1.0D-05 achieved.  Increase integral accuracy.
 SCF Done:  E(RM062X) =  -3074.33787873     A.U. after   14 cycles
            NFock= 14  Conv=0.48D-08     -V/T= 2.0014

 **********************************************************************

            Population analysis using the SCF density.

 **********************************************************************

 Alpha  occ. eigenvalues -- -485.12290-102.42024 -63.11508 -56.94170 -56.94041
 Alpha  occ. eigenvalues --  -56.94041 -10.45923  -9.56176  -8.80135  -7.28408
 Alpha  occ. eigenvalues --   -7.28188  -7.28188  -6.62589  -6.62085  -6.62085
 Alpha  occ. eigenvalues --   -2.65746  -2.65586  -2.65585  -2.65141  -2.65141
 Alpha  occ. eigenvalues --   -0.69269  -0.64783  -0.59903  -0.36962  -0.36961
 Alpha  occ. eigenvalues --   -0.23232  -0.16251  -0.16251  -0.15248  -0.15247
 Alpha  occ. eigenvalues --   -0.13294
 Alpha virt. eigenvalues --    0.14989   0.22574   0.28837   0.28842   0.46486
 Alpha virt. eigenvalues --    0.46931   0.46932   0.48375   0.50236   0.50238
 Alpha virt. eigenvalues --    0.53935   0.53939   0.64456   0.66497   0.76655
 Alpha virt. eigenvalues --    0.76659   0.79360   0.87764   0.87766   0.88539
 Alpha virt. eigenvalues --    0.89162   0.89166   0.98120   1.17619   1.17622
 Alpha virt. eigenvalues --    1.18209   1.18210   1.18275   1.28786   1.28793
 Alpha virt. eigenvalues --    1.37335   1.58475   1.62721   1.62730   1.66246
 Alpha virt. eigenvalues --    1.98211   1.98212   1.99186   2.10546   2.10552
 Alpha virt. eigenvalues --    2.16764   2.16766   2.27212   2.39307   2.39310
 Alpha virt. eigenvalues --    2.49438   2.60063   2.60067   2.65920   2.79127
 Alpha virt. eigenvalues --    2.79128   2.99694   3.15159   3.89968   3.89974
 Alpha virt. eigenvalues --    4.48806   4.48808   4.52120   4.52124   4.71143
 Alpha virt. eigenvalues --    6.73268   7.75009   7.75011   7.83781   9.87470
 Alpha virt. eigenvalues --   24.08531  25.74614  25.74618  26.03629  48.31247
 Alpha virt. eigenvalues --  215.92027 290.90560 290.90560 290.998931020.80210
          Condensed to atoms (all electrons):
               1          2          3          4          5          6
     1  C    4.978754   0.414695   0.414688   0.414805   0.052222   0.076234
     2  H    0.414695   0.493963  -0.016109  -0.016070  -0.040723  -0.040948
     3  H    0.414688  -0.016109   0.493973  -0.016074  -0.040716  -0.040947
     4  H    0.414805  -0.016070  -0.016074   0.493908  -0.040862  -0.041049
     5  Cl   0.052222  -0.040723  -0.040716  -0.040862  17.754407   0.016854
     6  Br   0.076234  -0.040948  -0.040947  -0.041049   0.016854  35.592995
 Mulliken charges:
               1
     1  C   -0.351399
     2  H    0.205193
     3  H    0.205184
     4  H    0.205343
     5  Cl  -0.701183
     6  Br  -0.563138
 Sum of Mulliken charges =  -1.00000
 Mulliken charges with hydrogens summed into heavy atoms:
               1
     1  C    0.264321
     5  Cl  -0.701183
     6  Br  -0.563138
 Electronic spatial extent (au):  <R**2>=           1099.8492
 Charge=             -1.0000 electrons
 Dipole moment (field-independent basis, Debye):
    X=             -5.4034    Y=              0.0005    Z=              0.0031  Tot=              5.4034
 Quadrupole moment (field-independent basis, Debye-Ang):
   XX=            -87.6029   YY=            -43.0532   ZZ=            -43.0524
   XY=              0.0003   XZ=              0.0041   YZ=             -0.0002
 Traceless Quadrupole moment (field-independent basis, Debye-Ang):
   XX=            -29.7001   YY=             14.8497   ZZ=             14.8504
   XY=              0.0003   XZ=              0.0041   YZ=             -0.0002
 Octapole moment (field-independent basis, Debye-Ang**2):
  XXX=           -181.7676  YYY=              0.3348  ZZZ=             -1.1150  XYY=            -22.2082
  XXY=              0.0005  XXZ=              0.0017  XZZ=            -22.2081  YZZ=             -0.3345
  YYZ=              1.1106  XYZ=              0.0002
 Hexadecapole moment (field-independent basis, Debye-Ang**3):
 XXXX=          -1749.0607 YYYY=            -63.4875 ZZZZ=            -63.4903 XXXY=              0.0020
 XXXZ=              0.0268 YYYX=              0.2996 YYYZ=              0.0005 ZZZX=             -0.9784
 ZZZY=             -0.0020 XXYY=           -241.2726 XXZZ=           -241.2714 YYZZ=            -21.1593
 XXYZ=             -0.0011 YYXZ=              0.9960 ZZXY=             -0.2982
 N-N= 1.759303152842D+02 E-N=-7.705599847961D+03  KE= 3.070147332912D+03
 Calling FoFJK, ICntrl=      2127 FMM=F ISym2X=0 I1Cent= 0 IOpClX= 0 NMat=1 NMatS=1 NMatT=0.
 -------------------------------------------------------------------
 Center     Atomic                   Forces (Hartrees/Bohr)
 Number     Number              X              Y              Z
 -------------------------------------------------------------------
      1        6          -0.007152807   -0.000000142   -0.000024162
      2        1          -0.000059849    0.000306416   -0.000214673
      3        1          -0.000062966   -0.000325103   -0.000152899
      4        1          -0.000066672    0.000035471    0.000376131
      5       17           0.003802281   -0.000009113    0.000013583
      6       35           0.003540012   -0.000007529    0.000002020
 -------------------------------------------------------------------
 Cartesian Forces:  Max     0.007152807 RMS     0.002089343

 GradGradGradGradGradGradGradGradGradGradGradGradGradGradGradGradGradGrad
 Berny optimization.
 Search for a local minimum.
 Step number   1 out of a maximum of    2
 All quantities printed in internal units (Hartrees-Bohrs-Radians)
 Second derivative matrix not updated -- first step.
 The second derivative matrix:
                          X1        Y1        Z1        X2        Y2
           X1           0.27701
           Y1          -0.00002   0.73668
           Z1          -0.00003   0.00000   0.73674
           X2          -0.07134   0.00707  -0.00506   0.05072
           Y2           0.01429  -0.28169   0.11920  -0.01528   0.26838
           Z2          -0.01023   0.11920  -0.20040   0.01095  -0.13696
           X3          -0.07134  -0.00790  -0.00360   0.01031   0.00278
           Y3          -0.01599  -0.32395  -0.09481  -0.00218  -0.00949
           Z3          -0.00727  -0.09481  -0.15815   0.00332   0.02050
           X4          -0.07134   0.00085   0.00872   0.01031  -0.00179
           Y4           0.00172  -0.11750  -0.02439  -0.00386   0.02210
           Z4           0.01756  -0.02439  -0.36466   0.00099  -0.00227
           X5           0.00000   0.00000   0.00000   0.00000   0.00000
           Y5           0.00000   0.00000   0.00000   0.00000   0.00000
           Z5           0.00000   0.00000   0.00000   0.00000   0.00000
           X6          -0.06298  -0.00000  -0.00003   0.00000   0.00000
           Y6          -0.00000  -0.01353   0.00000   0.01425   0.00070
           Z6          -0.00003   0.00000  -0.01352  -0.01020  -0.00048
                          Z2        X3        Y3        Z3        X4
           Z2           0.17499
           X3           0.00284   0.05072
           Y3          -0.01304   0.01710   0.31694
           Z3           0.02831   0.00777   0.10894   0.12644
           X4          -0.00355   0.01031   0.00107  -0.00383   0.05074
           Y4           0.03127   0.00398   0.01563  -0.03500  -0.00184
           Z4          -0.00327   0.00023  -0.00146   0.00319  -0.01879
           X5           0.00000   0.00000   0.00000   0.00000   0.00000
           Y5           0.00000   0.00000   0.00000   0.00000   0.00000
           Z5           0.00000   0.00000   0.00000   0.00000   0.00000
           X6          -0.00000   0.00001  -0.00000  -0.00000  -0.00001
           Y6          -0.00047  -0.01596   0.00087   0.00037   0.00171
           Z6           0.00037  -0.00725   0.00038   0.00020   0.01745
                          Y4        Z4        X5        Y5        Z5
           Y4           0.07973
           Z4           0.02803   0.36371
           X5           0.00000   0.00000   1.00000
           Y5           0.00000   0.00000   0.00000   1.00000
           Z5           0.00000   0.00000   0.00000   0.00000   1.00000
           X6          -0.00000  -0.00000   0.00000   0.00000   0.00000
           Y6           0.00004   0.00010   0.00000   0.00000   0.00000
           Z6           0.00010   0.00103   0.00000   0.00000   0.00000
                          X6        Y6        Z6
           X6           0.06298
           Y6           0.00000   0.01191
           Z6           0.00003  -0.00000   0.01191
 ITU=  0
     Eigenvalues ---    0.03763   0.04554   0.04554   0.09617   0.09617
     Eigenvalues ---    0.16698   0.16699   0.32058   0.39155   0.72959
     Eigenvalues ---    1.04352   1.04362
 Angle between quadratic step and forces=  54.16 degrees.
 Linear search not attempted -- first point.
 B after Tr=     0.022961   -0.000024    0.000031
         Rot=    1.000000    0.000000    0.000000    0.000000 Ang=   0.00 deg.
 Variable       Old X    -DE/DX   Delta X   Delta X   Delta X     New X
                                 (Linear)    (Quad)   (Total)
    X1        1.51140  -0.00715   0.00000  -0.04858  -0.02562   1.48579
    Y1        0.00032  -0.00000   0.00000   0.00005   0.00002   0.00035
    Z1        0.00248  -0.00002   0.00000  -0.00008  -0.00005   0.00243
    X2        1.63163  -0.00006   0.00000  -0.04440  -0.02145   1.61018
    Y2       -1.64703   0.00031   0.00000   0.00104   0.00101  -1.64602
    Z2        1.18129  -0.00021   0.00000  -0.00078  -0.00075   1.18054
    X3        1.63151  -0.00006   0.00000  -0.04447  -0.02151   1.61001
    Y3        1.84481  -0.00033   0.00000  -0.00103  -0.00106   1.84375
    Z3        0.83987  -0.00015   0.00000  -0.00056  -0.00052   0.83935
    X4        1.63208  -0.00007   0.00000  -0.04455  -0.02159   1.61049
    Y4       -0.19674   0.00004   0.00000   0.00016   0.00013  -0.19661
    Z4       -2.01347   0.00038   0.00000   0.00115   0.00118  -2.01229
    X5        6.06702   0.00380   0.00000   0.00518   0.02814   6.09516
    Y5       -0.00008  -0.00001   0.00000  -0.00004  -0.00007  -0.00015
    Z5       -0.00057   0.00001   0.00000   0.00003   0.00007  -0.00050
    X6       -2.98065   0.00354   0.00000   0.03905   0.06201  -2.91863
    Y6       -0.00004  -0.00001   0.00000  -0.00002  -0.00004  -0.00008
    Z6       -0.00023   0.00000   0.00000   0.00004   0.00007  -0.00016
         Item               Value     Threshold  Converged?
 Maximum Force            0.007153     0.000450     NO 
 RMS     Force            0.002089     0.000300     NO 
 Maximum Displacement     0.062015     0.001800     NO 
 RMS     Displacement     0.019274     0.001200     NO 
 Predicted change in Energy=-1.249821D-04
 GradGradGradGradGradGradGradGradGradGradGradGradGradGradGradGradGradGrad

 1\1\GINC-FS\Force\RM062X\6-311G(d,p)\C1H3Br1Cl1(1-)\XINYAN\22-Jan-2019
 \0\\# M062X/6-311G** force nosymm int=ultrafine\\Title\\-1,1\C,0.7998,
 0.00017,0.00131\H,0.86342,-0.87157,0.62511\H,0.86336,0.97623,0.44444\H
 ,0.86366,-0.10411,-1.06548\Cl,3.21053,-0.00004,-0.0003\Br,-1.57729,-0.
 00002,-0.00012\\Version=ES64L-G16RevA.03\HF=-3074.3378787\RMSD=4.834e-
 09\RMSF=2.089e-03\Dipole=-1.9163378,0.0002157,0.0013041\Quadrupole=-22
 .0812906,11.0403611,11.0409295,0.0002093,0.0030136,-0.0001655\PG=C01 [
 X(C1H3Br1Cl1)]\\@


 WHEN HAVING A MEETING OF THE MINDS,
 MAKE SURE YOU HAVE THE EQUIPMENT FOR IT.
 Job cpu time:       0 days  0 hours  1 minutes  3.4 seconds.
 Elapsed time:       0 days  0 hours  0 minutes 15.5 seconds.
 File lengths (MBytes):  RWF=     10 Int=      0 D2E=      0 Chk=      2 Scr=      1
 Normal termination of Gaussian 16 at Tue Jan 22 16:49:01 2019.
