 Entering Gaussian System, Link 0=g16
 Input=CH3BrCl-1.gjf
 Output=CH3BrCl-1.log
 Initial command:
 /home/xinyan/g16/l1.exe "/scratch/tmp/Gau-11775.inp" -scrdir="/scratch/tmp/"
 Entering Link 1 = /home/xinyan/g16/l1.exe PID=     11776.
  
 Copyright (c) 1988,1990,1992,1993,1995,1998,2003,2009,2016,
            Gaussian, Inc.  All Rights Reserved.
  
 This is part of the Gaussian(R) 16 program.  It is based on
 the Gaussian(R) 09 system (copyright 2009, Gaussian, Inc.),
 the Gaussian(R) 03 system (copyright 2003, Gaussian, Inc.),
 the Gaussian(R) 98 system (copyright 1998, Gaussian, Inc.),
 the Gaussian(R) 94 system (copyright 1995, Gaussian, Inc.),
 the Gaussian 92(TM) system (copyright 1992, Gaussian, Inc.),
 the Gaussian 90(TM) system (copyright 1990, Gaussian, Inc.),
 the Gaussian 88(TM) system (copyright 1988, Gaussian, Inc.),
 the Gaussian 86(TM) system (copyright 1986, Carnegie Mellon
 University), and the Gaussian 82(TM) system (copyright 1983,
 Carnegie Mellon University). Gaussian is a federally registered
 trademark of Gaussian, Inc.
  
 This software contains proprietary and confidential information,
 including trade secrets, belonging to Gaussian, Inc.
  
 This software is provided under written license and may be
 used, copied, transmitted, or stored only in accord with that
 written license.
  
 The following legend is applicable only to US Government
 contracts under FAR:
  
                    RESTRICTED RIGHTS LEGEND
  
 Use, reproduction and disclosure by the US Government is
 subject to restrictions as set forth in subparagraphs (a)
 and (c) of the Commercial Computer Software - Restricted
 Rights clause in FAR 52.227-19.
  
 Gaussian, Inc.
 340 Quinnipiac St., Bldg. 40, Wallingford CT 06492
  
  
 ---------------------------------------------------------------
 Warning -- This program may not be used in any manner that
 competes with the business of Gaussian, Inc. or will provide
 assistance to any competitor of Gaussian, Inc.  The licensee
 of this program is prohibited from giving any competitor of
 Gaussian, Inc. access to this program.  By using this program,
 the user acknowledges that Gaussian, Inc. is engaged in the
 business of creating and licensing software in the field of
 computational chemistry and represents and warrants to the
 licensee that it is not a competitor of Gaussian, Inc. and that
 it will not use this program in any manner prohibited above.
 ---------------------------------------------------------------
  

 Cite this work as:
 Gaussian 16, Revision A.03,
 M. J. Frisch, G. W. Trucks, H. B. Schlegel, G. E. Scuseria, 
 M. A. Robb, J. R. Cheeseman, G. Scalmani, V. Barone, 
 G. A. Petersson, H. Nakatsuji, X. Li, M. Caricato, A. V. Marenich, 
 J. Bloino, B. G. Janesko, R. Gomperts, B. Mennucci, H. P. Hratchian, 
 J. V. Ortiz, A. F. Izmaylov, J. L. Sonnenberg, D. Williams-Young, 
 F. Ding, F. Lipparini, F. Egidi, J. Goings, B. Peng, A. Petrone, 
 T. Henderson, D. Ranasinghe, V. G. Zakrzewski, J. Gao, N. Rega, 
 G. Zheng, W. Liang, M. Hada, M. Ehara, K. Toyota, R. Fukuda, 
 J. Hasegawa, M. Ishida, T. Nakajima, Y. Honda, O. Kitao, H. Nakai, 
 T. Vreven, K. Throssell, J. A. Montgomery, Jr., J. E. Peralta, 
 F. Ogliaro, M. J. Bearpark, J. J. Heyd, E. N. Brothers, K. N. Kudin, 
 V. N. Staroverov, T. A. Keith, R. Kobayashi, J. Normand, 
 K. Raghavachari, A. P. Rendell, J. C. Burant, S. S. Iyengar, 
 J. Tomasi, M. Cossi, J. M. Millam, M. Klene, C. Adamo, R. Cammi, 
 J. W. Ochterski, R. L. Martin, K. Morokuma, O. Farkas, 
 J. B. Foresman, and D. J. Fox, Gaussian, Inc., Wallingford CT, 2016.
 
 ******************************************
 Gaussian 16:  ES64L-G16RevA.03 25-Dec-2016
                22-Jan-2019 
 ******************************************
 %nproc=5
 Will use up to    5 processors via shared memory.
 -------------------------------------------
 # M062X/6-311G** force nosymm int=ultrafine
 -------------------------------------------
 1/10=7,30=1,38=1/1,3;
 2/12=2,15=1,17=6,18=5,40=1/2;
 3/5=4,6=6,7=101,11=2,25=1,30=1,71=1,74=-55,75=-5/1,2,3;
 4//1;
 5/5=2,38=5/2;
 6/7=2,8=2,9=2,10=2,28=1/1;
 7/29=1,30=1/1,2,3,16;
 1/10=7,30=1/3;
 99//99;
 -----
 Title
 -----
 Symbolic Z-matrix:
 Charge = -1 Multiplicity = 1
 C                     0.74014   0.00009   0.00134 
 H                     0.75539  -0.87274   0.62551 
 H                     0.75541   0.97707   0.44511 
 H                     0.75517  -0.10408  -1.06654 
 Cl                    3.08994  -0.00003  -0.00037 
 Br                   -1.69245  -0.00001  -0.00017 
 

 GradGradGradGradGradGradGradGradGradGradGradGradGradGradGradGradGradGrad
 Berny optimization.
 Initialization pass.
 Trust Radius=3.00D-01 FncErr=1.00D-07 GrdErr=1.00D-07 EigMax=2.50D+02 EigMin=1.00D-04
 Number of steps in this run=      2 maximum allowed number of steps=      2.
 GradGradGradGradGradGradGradGradGradGradGradGradGradGradGradGradGradGrad

                          Input orientation:                          
 ---------------------------------------------------------------------
 Center     Atomic      Atomic             Coordinates (Angstroms)
 Number     Number       Type             X           Y           Z
 ---------------------------------------------------------------------
      1          6           0        0.740140    0.000090    0.001340
      2          1           0        0.755390   -0.872740    0.625510
      3          1           0        0.755410    0.977070    0.445110
      4          1           0        0.755170   -0.104080   -1.066540
      5         17           0        3.089940   -0.000030   -0.000370
      6         35           0       -1.692450   -0.000010   -0.000170
 ---------------------------------------------------------------------
                    Distance matrix (angstroms):
                    1          2          3          4          5
     1  C    0.000000
     2  H    1.073151   0.000000
     3  H    1.073152   1.858586   0.000000
     4  H    1.073054   1.858459   1.858486   0.000000
     5  Cl   2.349801   2.569722   2.569671   2.568793   0.000000
     6  Br   2.432590   2.673023   2.673009   2.671857   4.782390
                    6
     6  Br   0.000000
 Symmetry turned off by external request.
 This structure is nearly, but not quite of a higher symmetry.
 Consider Symm=Loose if the higher symmetry is desired.
 Stoichiometry    CH3BrCl(1-)
 Framework group  C1[X(CH3BrCl)]
 Deg. of freedom    12
 Full point group                 C1      NOp   1
 Rotational constants (GHZ):         145.1769868           0.8891760           0.8891756
 Standard basis: 6-311G(d,p) (5D, 7F)
   106 basis functions,   195 primitive gaussians,   111 cartesian basis functions
    31 alpha electrons       31 beta electrons
       nuclear repulsion energy       175.5145092985 Hartrees.
 NAtoms=    6 NActive=    6 NUniq=    6 SFac= 1.00D+00 NAtFMM=   60 NAOKFM=F Big=F
 Integral buffers will be    131072 words long.
 Raffenetti 2 integral format.
 Two-electron integral symmetry is turned off.
 One-electron integrals computed using PRISM.
 NBasis=   106 RedAO= T EigKep=  1.10D-02  NBF=   106
 NBsUse=   106 1.00D-06 EigRej= -1.00D+00 NBFU=   106
 ExpMin= 1.03D-01 ExpMax= 4.40D+05 ExpMxC= 1.51D+04 IAcc=3 IRadAn=         5 AccDes= 0.00D+00
 Harris functional with IExCor= 1009 and IRadAn=       5 diagonalized for initial guess.
 HarFok:  IExCor= 1009 AccDes= 0.00D+00 IRadAn=         5 IDoV= 1 UseB2=F ITyADJ=14
 ICtDFT=  3500011 ScaDFX=  1.000000  1.000000  1.000000  1.000000
 FoFCou: FMM=F IPFlag=           0 FMFlag=      100000 FMFlg1=           0
         NFxFlg=           0 DoJE=T BraDBF=F KetDBF=T FulRan=T
         wScrn=  0.000000 ICntrl=       500 IOpCl=  0 I1Cent=   200000004 NGrid=           0
         NMat0=    1 NMatS0=      1 NMatT0=    0 NMatD0=    1 NMtDS0=    0 NMtDT0=    0
 Symmetry not used in FoFCou.
 Keep R1 ints in memory in canonical form, NReq=20756192.
 Requested convergence on RMS density matrix=1.00D-08 within 128 cycles.
 Requested convergence on MAX density matrix=1.00D-06.
 Requested convergence on             energy=1.00D-06.
 No special actions if energy rises.
 Integral accuracy reduced to 1.0D-05 until final iterations.
 Initial convergence to 1.0D-05 achieved.  Increase integral accuracy.
 SCF Done:  E(RM062X) =  -3074.33747406     A.U. after   14 cycles
            NFock= 14  Conv=0.37D-08     -V/T= 2.0014

 **********************************************************************

            Population analysis using the SCF density.

 **********************************************************************

 Alpha  occ. eigenvalues -- -485.11146-102.43279 -63.10369 -56.93019 -56.92908
 Alpha  occ. eigenvalues --  -56.92908 -10.45979  -9.57413  -8.78994  -7.29673
 Alpha  occ. eigenvalues --   -7.29408  -7.29408  -6.61406  -6.60967  -6.60967
 Alpha  occ. eigenvalues --   -2.64567  -2.64428  -2.64427  -2.64041  -2.64041
 Alpha  occ. eigenvalues --   -0.69609  -0.64793  -0.59659  -0.37030  -0.37029
 Alpha  occ. eigenvalues --   -0.23212  -0.16550  -0.16549  -0.15047  -0.15046
 Alpha  occ. eigenvalues --   -0.13299
 Alpha virt. eigenvalues --    0.15064   0.22508   0.28816   0.28822   0.46891
 Alpha virt. eigenvalues --    0.47077   0.47079   0.47736   0.50410   0.50412
 Alpha virt. eigenvalues --    0.53739   0.53743   0.65167   0.66626   0.76739
 Alpha virt. eigenvalues --    0.76744   0.78770   0.88769   0.88772   0.89202
 Alpha virt. eigenvalues --    0.89818   0.89823   0.97409   1.16247   1.16249
 Alpha virt. eigenvalues --    1.17138   1.17138   1.19800   1.28995   1.29004
 Alpha virt. eigenvalues --    1.35700   1.58335   1.62579   1.62586   1.65834
 Alpha virt. eigenvalues --    1.98713   2.00358   2.00367   2.09119   2.09131
 Alpha virt. eigenvalues --    2.16829   2.16838   2.27424   2.38411   2.38414
 Alpha virt. eigenvalues --    2.48883   2.59978   2.59984   2.66454   2.79578
 Alpha virt. eigenvalues --    2.79578   2.99456   3.14998   3.90381   3.90395
 Alpha virt. eigenvalues --    4.49891   4.49892   4.52503   4.52509   4.70788
 Alpha virt. eigenvalues --    6.74299   7.75939   7.75941   7.84126   9.86801
 Alpha virt. eigenvalues --   24.08627  25.73626  25.73629  26.04455  48.32332
 Alpha virt. eigenvalues --  215.91426 290.91659 290.91660 291.003481020.81281
          Condensed to atoms (all electrons):
               1          2          3          4          5          6
     1  C    4.981548   0.414615   0.414619   0.414738   0.063919   0.061907
     2  H    0.414615   0.495357  -0.016245  -0.016215  -0.044040  -0.038675
     3  H    0.414619  -0.016245   0.495358  -0.016212  -0.044048  -0.038679
     4  H    0.414738  -0.016215  -0.016212   0.495314  -0.044170  -0.038812
     5  Cl   0.063919  -0.044040  -0.044048  -0.044170  17.703329   0.017234
     6  Br   0.061907  -0.038675  -0.038679  -0.038812   0.017234  35.649222
 Mulliken charges:
               1
     1  C   -0.351346
     2  H    0.205203
     3  H    0.205207
     4  H    0.205356
     5  Cl  -0.652224
     6  Br  -0.612196
 Sum of Mulliken charges =  -1.00000
 Mulliken charges with hydrogens summed into heavy atoms:
               1
     1  C    0.264420
     5  Cl  -0.652224
     6  Br  -0.612196
 Electronic spatial extent (au):  <R**2>=           1094.9906
 Charge=             -1.0000 electrons
 Dipole moment (field-independent basis, Debye):
    X=             -3.7788    Y=              0.0004    Z=              0.0035  Tot=              3.7788
 Quadrupole moment (field-independent basis, Debye-Ang):
   XX=            -84.9258   YY=            -43.0611   ZZ=            -43.0609
   XY=              0.0002   XZ=              0.0045   YZ=             -0.0002
 Traceless Quadrupole moment (field-independent basis, Debye-Ang):
   XX=            -27.9098   YY=             13.9548   ZZ=             13.9550
   XY=              0.0002   XZ=              0.0045   YZ=             -0.0002
 Octapole moment (field-independent basis, Debye-Ang**2):
  XXX=           -140.3346  YYY=              0.3356  ZZZ=             -1.1129  XYY=            -16.6243
  XXY=              0.0011  XXZ=              0.0053  XZZ=            -16.6256  YZZ=             -0.3347
  YYZ=              1.1165  XYZ=              0.0002
 Hexadecapole moment (field-independent basis, Debye-Ang**3):
 XXXX=          -1641.9867 YYYY=            -63.5331 ZZZZ=            -63.5357 XXXY=              0.0026
 XXXZ=              0.0309 YYYX=              0.2645 YYYZ=              0.0002 ZZZX=             -0.8595
 ZZZY=             -0.0018 XXYY=           -235.5706 XXZZ=           -235.5709 YYZZ=            -21.1744
 XXYZ=             -0.0011 YYXZ=              0.8809 ZZXY=             -0.2624
 N-N= 1.755145092985D+02 E-N=-7.704953259649D+03  KE= 3.070147011644D+03
 Calling FoFJK, ICntrl=      2127 FMM=F ISym2X=0 I1Cent= 0 IOpClX= 0 NMat=1 NMatS=1 NMatT=0.
 -------------------------------------------------------------------
 Center     Atomic                   Forces (Hartrees/Bohr)
 Number     Number              X              Y              Z
 -------------------------------------------------------------------
      1        6          -0.000058820    0.000004536   -0.000011758
      2        1           0.000001012    0.000021515    0.000006506
      3        1          -0.000008512   -0.000010706   -0.000004519
      4        1           0.000013714    0.000000440   -0.000010069
      5       17           0.000107356   -0.000010197    0.000014383
      6       35          -0.000054749   -0.000005587    0.000005456
 -------------------------------------------------------------------
 Cartesian Forces:  Max     0.000107356 RMS     0.000032928

 GradGradGradGradGradGradGradGradGradGradGradGradGradGradGradGradGradGrad
 Berny optimization.
 Search for a local minimum.
 Step number   1 out of a maximum of    2
 All quantities printed in internal units (Hartrees-Bohrs-Radians)
 Second derivative matrix not updated -- first step.
 The second derivative matrix:
                          X1        Y1        Z1        X2        Y2
           X1           0.27201
           Y1           0.00002   0.73974
           Z1           0.00014   0.00001   0.73978
           X2          -0.07172  -0.00885   0.00629   0.04990
           Y2           0.00341  -0.28334   0.11911  -0.00366   0.27001
           Z2          -0.00248   0.11910  -0.20194   0.00266  -0.13742
           X3          -0.07172   0.00989   0.00446   0.01091   0.00068
           Y3          -0.00383  -0.32545  -0.09479  -0.00053  -0.00938
           Z3          -0.00177  -0.09477  -0.15982   0.00080   0.02062
           X4          -0.07172  -0.00106  -0.01086   0.01091  -0.00042
           Y4           0.00040  -0.11916  -0.02433  -0.00092   0.02252
           Z4           0.00414  -0.02433  -0.36625   0.00024  -0.00220
           X5           0.00000   0.00000   0.00000   0.00000   0.00000
           Y5           0.00000   0.00000   0.00000   0.00000   0.00000
           Z5           0.00000   0.00000   0.00000   0.00000   0.00000
           X6          -0.05685  -0.00000  -0.00003   0.00001   0.00000
           Y6          -0.00000  -0.01179   0.00000   0.01396   0.00018
           Z6          -0.00003   0.00000  -0.01177  -0.00999  -0.00010
                          Z2        X3        Y3        Z3        X4
           Z2           0.17611
           X3           0.00068   0.04990
           Y3          -0.01310   0.00411   0.31861
           Z3           0.02881   0.00190   0.10936   0.12752
           X4          -0.00086   0.01091   0.00025  -0.00092   0.04991
           Y4           0.03152   0.00095   0.01601  -0.03528  -0.00043
           Z4          -0.00309   0.00006  -0.00156   0.00343  -0.00444
           X5           0.00000   0.00000   0.00000   0.00000   0.00000
           Y5           0.00000   0.00000   0.00000   0.00000   0.00000
           Z5           0.00000   0.00000   0.00000   0.00000   0.00000
           X6          -0.00000   0.00001  -0.00000  -0.00000  -0.00001
           Y6          -0.00009  -0.01563   0.00021   0.00007   0.00167
           Z6           0.00010  -0.00710   0.00008   0.00006   0.01709
                          Y4        Z4        X5        Y5        Z5
           Y4           0.08060
           Z4           0.02808   0.36567
           X5           0.00000   0.00000   1.00000
           Y5           0.00000   0.00000   0.00000   1.00000
           Z5           0.00000   0.00000   0.00000   0.00000   1.00000
           X6          -0.00000  -0.00000   0.00000   0.00000   0.00000
           Y6           0.00003   0.00002   0.00000   0.00000   0.00000
           Z6           0.00002   0.00024   0.00000   0.00000   0.00000
                          X6        Y6        Z6
           X6           0.05685
           Y6           0.00000   0.01137
           Z6           0.00003   0.00000   0.01137
 ITU=  0
     Eigenvalues ---    0.03490   0.04435   0.04435   0.09834   0.09834
     Eigenvalues ---    0.16888   0.16890   0.33715   0.37044   0.72913
     Eigenvalues ---    1.04806   1.04818
 Angle between quadratic step and forces=  53.12 degrees.
 Linear search not attempted -- first point.
 B after Tr=    -0.000020   -0.000016    0.000051
         Rot=    1.000000    0.000000   -0.000007    0.000003 Ang=   0.00 deg.
 Variable       Old X    -DE/DX   Delta X   Delta X   Delta X     New X
                                 (Linear)    (Quad)   (Total)
    X1        1.39866  -0.00006   0.00000  -0.00011  -0.00013   1.39854
    Y1        0.00017   0.00000   0.00000   0.00004   0.00002   0.00019
    Z1        0.00253  -0.00001   0.00000  -0.00009  -0.00006   0.00247
    X2        1.42748   0.00000   0.00000   0.00003   0.00001   1.42749
    Y2       -1.64924   0.00002   0.00000   0.00013   0.00010  -1.64914
    Z2        1.18204   0.00001   0.00000  -0.00002   0.00001   1.18205
    X3        1.42752  -0.00001   0.00000  -0.00017  -0.00017   1.42735
    Y3        1.84639  -0.00001   0.00000  -0.00003  -0.00005   1.84634
    Z3        0.84114  -0.00000   0.00000  -0.00004  -0.00001   0.84113
    X4        1.42706   0.00001   0.00000   0.00031   0.00026   1.42732
    Y4       -0.19668   0.00000   0.00000   0.00007   0.00004  -0.19664
    Z4       -2.01547  -0.00001   0.00000  -0.00011  -0.00008  -2.01555
    X5        5.83914   0.00011   0.00000   0.00015   0.00013   5.83927
    Y5       -0.00006  -0.00001   0.00000  -0.00004  -0.00010  -0.00015
    Z5       -0.00070   0.00001   0.00000   0.00003   0.00000  -0.00070
    X6       -3.19827  -0.00005   0.00000  -0.00009  -0.00011  -3.19837
    Y6       -0.00002  -0.00001   0.00000  -0.00001  -0.00001  -0.00003
    Z6       -0.00032   0.00001   0.00000   0.00005   0.00014  -0.00018
         Item               Value     Threshold  Converged?
 Maximum Force            0.000107     0.000450     YES
 RMS     Force            0.000033     0.000300     YES
 Maximum Displacement     0.000260     0.001800     YES
 RMS     Displacement     0.000104     0.001200     YES
 Predicted change in Energy=-1.807686D-08
 Optimization completed.
    -- Stationary point found.
 GradGradGradGradGradGradGradGradGradGradGradGradGradGradGradGradGradGrad

 1\1\GINC-FS\Force\RM062X\6-311G(d,p)\C1H3Br1Cl1(1-)\XINYAN\22-Jan-2019
 \0\\# M062X/6-311G** force nosymm int=ultrafine\\Title\\-1,1\C,0.74014
 ,0.00009,0.00134\H,0.75539,-0.87274,0.62551\H,0.75541,0.97707,0.44511\
 H,0.75517,-0.10408,-1.06654\Cl,3.08994,-0.00003,-0.00037\Br,-1.69245,-
 0.00001,-0.00017\\Version=ES64L-G16RevA.03\HF=-3074.3374741\RMSD=3.715
 e-09\RMSF=3.293e-05\Dipole=-1.4866948,0.0001377,0.0013669\Quadrupole=-
 20.7502852,10.3750483,10.375237,0.0001426,0.003373,-0.00012\PG=C01 [X(
 C1H3Br1Cl1)]\\@


 IT IS IMPOSSIBLE TO MEDITATE ON TIME AND THE MYSTERY 
 OF NATURE WITHOUT AN OVERWHELMING EMOTION AT THE
 LIMITATIONS OF HUMAN INTELLIGENCE.

                                         -- ALFRED NORTH WHITEHEAD
 Job cpu time:       0 days  0 hours  1 minutes  2.2 seconds.
 Elapsed time:       0 days  0 hours  0 minutes 17.1 seconds.
 File lengths (MBytes):  RWF=     10 Int=      0 D2E=      0 Chk=      2 Scr=      1
 Normal termination of Gaussian 16 at Tue Jan 22 16:48:25 2019.
