 Entering Gaussian System, Link 0=g16
 Input=CH3BrCl-27.gjf
 Output=CH3BrCl-27.log
 Initial command:
 /home/xinyan/g16/l1.exe "/scratch/tmp/Gau-13569.inp" -scrdir="/scratch/tmp/"
 Entering Link 1 = /home/xinyan/g16/l1.exe PID=     13570.
  
 Copyright (c) 1988,1990,1992,1993,1995,1998,2003,2009,2016,
            Gaussian, Inc.  All Rights Reserved.
  
 This is part of the Gaussian(R) 16 program.  It is based on
 the Gaussian(R) 09 system (copyright 2009, Gaussian, Inc.),
 the Gaussian(R) 03 system (copyright 2003, Gaussian, Inc.),
 the Gaussian(R) 98 system (copyright 1998, Gaussian, Inc.),
 the Gaussian(R) 94 system (copyright 1995, Gaussian, Inc.),
 the Gaussian 92(TM) system (copyright 1992, Gaussian, Inc.),
 the Gaussian 90(TM) system (copyright 1990, Gaussian, Inc.),
 the Gaussian 88(TM) system (copyright 1988, Gaussian, Inc.),
 the Gaussian 86(TM) system (copyright 1986, Carnegie Mellon
 University), and the Gaussian 82(TM) system (copyright 1983,
 Carnegie Mellon University). Gaussian is a federally registered
 trademark of Gaussian, Inc.
  
 This software contains proprietary and confidential information,
 including trade secrets, belonging to Gaussian, Inc.
  
 This software is provided under written license and may be
 used, copied, transmitted, or stored only in accord with that
 written license.
  
 The following legend is applicable only to US Government
 contracts under FAR:
  
                    RESTRICTED RIGHTS LEGEND
  
 Use, reproduction and disclosure by the US Government is
 subject to restrictions as set forth in subparagraphs (a)
 and (c) of the Commercial Computer Software - Restricted
 Rights clause in FAR 52.227-19.
  
 Gaussian, Inc.
 340 Quinnipiac St., Bldg. 40, Wallingford CT 06492
  
  
 ---------------------------------------------------------------
 Warning -- This program may not be used in any manner that
 competes with the business of Gaussian, Inc. or will provide
 assistance to any competitor of Gaussian, Inc.  The licensee
 of this program is prohibited from giving any competitor of
 Gaussian, Inc. access to this program.  By using this program,
 the user acknowledges that Gaussian, Inc. is engaged in the
 business of creating and licensing software in the field of
 computational chemistry and represents and warrants to the
 licensee that it is not a competitor of Gaussian, Inc. and that
 it will not use this program in any manner prohibited above.
 ---------------------------------------------------------------
  

 Cite this work as:
 Gaussian 16, Revision A.03,
 M. J. Frisch, G. W. Trucks, H. B. Schlegel, G. E. Scuseria, 
 M. A. Robb, J. R. Cheeseman, G. Scalmani, V. Barone, 
 G. A. Petersson, H. Nakatsuji, X. Li, M. Caricato, A. V. Marenich, 
 J. Bloino, B. G. Janesko, R. Gomperts, B. Mennucci, H. P. Hratchian, 
 J. V. Ortiz, A. F. Izmaylov, J. L. Sonnenberg, D. Williams-Young, 
 F. Ding, F. Lipparini, F. Egidi, J. Goings, B. Peng, A. Petrone, 
 T. Henderson, D. Ranasinghe, V. G. Zakrzewski, J. Gao, N. Rega, 
 G. Zheng, W. Liang, M. Hada, M. Ehara, K. Toyota, R. Fukuda, 
 J. Hasegawa, M. Ishida, T. Nakajima, Y. Honda, O. Kitao, H. Nakai, 
 T. Vreven, K. Throssell, J. A. Montgomery, Jr., J. E. Peralta, 
 F. Ogliaro, M. J. Bearpark, J. J. Heyd, E. N. Brothers, K. N. Kudin, 
 V. N. Staroverov, T. A. Keith, R. Kobayashi, J. Normand, 
 K. Raghavachari, A. P. Rendell, J. C. Burant, S. S. Iyengar, 
 J. Tomasi, M. Cossi, J. M. Millam, M. Klene, C. Adamo, R. Cammi, 
 J. W. Ochterski, R. L. Martin, K. Morokuma, O. Farkas, 
 J. B. Foresman, and D. J. Fox, Gaussian, Inc., Wallingford CT, 2016.
 
 ******************************************
 Gaussian 16:  ES64L-G16RevA.03 25-Dec-2016
                22-Jan-2019 
 ******************************************
 %nproc=5
 Will use up to    5 processors via shared memory.
 -------------------------------------------
 # M062X/6-311G** force nosymm int=ultrafine
 -------------------------------------------
 1/10=7,30=1,38=1/1,3;
 2/12=2,15=1,17=6,18=5,40=1/2;
 3/5=4,6=6,7=101,11=2,25=1,30=1,71=1,74=-55,75=-5/1,2,3;
 4//1;
 5/5=2,38=5/2;
 6/7=2,8=2,9=2,10=2,28=1/1;
 7/29=1,30=1/1,2,3,16;
 1/10=7,30=1/3;
 99//99;
 -----
 Title
 -----
 Symbolic Z-matrix:
 Charge = -1 Multiplicity = 1
 C                     0.39044   0.00125   0.00189 
 H                     0.71514  -0.83318   0.60796 
 H                     0.71367   0.94334   0.42173 
 H                     0.71675  -0.10619  -1.0241 
 Cl                    3.42088  -0.0001   -0.00072 
 Br                   -1.60257  -0.0002   -0.00004 
 

 GradGradGradGradGradGradGradGradGradGradGradGradGradGradGradGradGradGrad
 Berny optimization.
 Initialization pass.
 Trust Radius=3.00D-01 FncErr=1.00D-07 GrdErr=1.00D-07 EigMax=2.50D+02 EigMin=1.00D-04
 Number of steps in this run=      2 maximum allowed number of steps=      2.
 GradGradGradGradGradGradGradGradGradGradGradGradGradGradGradGradGradGrad

                          Input orientation:                          
 ---------------------------------------------------------------------
 Center     Atomic      Atomic             Coordinates (Angstroms)
 Number     Number       Type             X           Y           Z
 ---------------------------------------------------------------------
      1          6           0        0.390440    0.001250    0.001890
      2          1           0        0.715140   -0.833180    0.607960
      3          1           0        0.713670    0.943340    0.421730
      4          1           0        0.716750   -0.106190   -1.024100
      5         17           0        3.420880   -0.000100   -0.000720
      6         35           0       -1.602570   -0.000200   -0.000040
 ---------------------------------------------------------------------
                    Distance matrix (angstroms):
                    1          2          3          4          5
     1  C    0.000000
     2  H    1.081214   0.000000
     3  H    1.080869   1.786255   0.000000
     4  H    1.081978   1.786655   1.786602   0.000000
     5  Cl   3.030441   2.895780   2.897849   2.893247   0.000000
     6  Br   1.993011   2.536789   2.536361   2.537554   5.023450
                    6
     6  Br   0.000000
 Symmetry turned off by external request.
 Stoichiometry    CH3BrCl(1-)
 Framework group  C1[X(CH3BrCl)]
 Deg. of freedom    12
 Full point group                 C1      NOp   1
 Rotational constants (GHZ):         157.1131176           0.8192443           0.8192431
 Standard basis: 6-311G(d,p) (5D, 7F)
   106 basis functions,   195 primitive gaussians,   111 cartesian basis functions
    31 alpha electrons       31 beta electrons
       nuclear repulsion energy       177.1675069863 Hartrees.
 NAtoms=    6 NActive=    6 NUniq=    6 SFac= 1.00D+00 NAtFMM=   60 NAOKFM=F Big=F
 Integral buffers will be    131072 words long.
 Raffenetti 2 integral format.
 Two-electron integral symmetry is turned off.
 One-electron integrals computed using PRISM.
 NBasis=   106 RedAO= T EigKep=  9.99D-03  NBF=   106
 NBsUse=   106 1.00D-06 EigRej= -1.00D+00 NBFU=   106
 ExpMin= 1.03D-01 ExpMax= 4.40D+05 ExpMxC= 1.51D+04 IAcc=3 IRadAn=         5 AccDes= 0.00D+00
 Harris functional with IExCor= 1009 and IRadAn=       5 diagonalized for initial guess.
 HarFok:  IExCor= 1009 AccDes= 0.00D+00 IRadAn=         5 IDoV= 1 UseB2=F ITyADJ=14
 ICtDFT=  3500011 ScaDFX=  1.000000  1.000000  1.000000  1.000000
 FoFCou: FMM=F IPFlag=           0 FMFlag=      100000 FMFlg1=           0
         NFxFlg=           0 DoJE=T BraDBF=F KetDBF=T FulRan=T
         wScrn=  0.000000 ICntrl=       500 IOpCl=  0 I1Cent=   200000004 NGrid=           0
         NMat0=    1 NMatS0=      1 NMatT0=    0 NMatD0=    1 NMtDS0=    0 NMtDT0=    0
 Symmetry not used in FoFCou.
 Keep R1 ints in memory in canonical form, NReq=20756204.
 Requested convergence on RMS density matrix=1.00D-08 within 128 cycles.
 Requested convergence on MAX density matrix=1.00D-06.
 Requested convergence on             energy=1.00D-06.
 No special actions if energy rises.
 Integral accuracy reduced to 1.0D-05 until final iterations.
 Initial convergence to 1.0D-05 achieved.  Increase integral accuracy.
 SCF Done:  E(RM062X) =  -3074.35174559     A.U. after   13 cycles
            NFock= 13  Conv=0.26D-08     -V/T= 2.0014

 **********************************************************************

            Population analysis using the SCF density.

 **********************************************************************

 Alpha  occ. eigenvalues -- -485.19244-102.36168 -63.18465 -57.01184 -57.00967
 Alpha  occ. eigenvalues --  -57.00967 -10.44666  -9.50325  -8.87158  -7.22443
 Alpha  occ. eigenvalues --   -7.22419  -7.22419  -6.69849  -6.68985  -6.68985
 Alpha  occ. eigenvalues --   -2.73002  -2.72705  -2.72705  -2.71939  -2.71939
 Alpha  occ. eigenvalues --   -0.75667  -0.61966  -0.58808  -0.36530  -0.36502
 Alpha  occ. eigenvalues --   -0.30107  -0.21085  -0.21082  -0.10375  -0.10374
 Alpha  occ. eigenvalues --   -0.10372
 Alpha virt. eigenvalues --    0.16930   0.23729   0.28483   0.28486   0.43525
 Alpha virt. eigenvalues --    0.45450   0.45460   0.46661   0.46662   0.55473
 Alpha virt. eigenvalues --    0.56810   0.56822   0.57301   0.66561   0.75889
 Alpha virt. eigenvalues --    0.75911   0.77309   0.81359   0.81360   0.85150
 Alpha virt. eigenvalues --    0.85150   0.91885   1.01459   1.09447   1.23454
 Alpha virt. eigenvalues --    1.23455   1.23832   1.23836   1.28930   1.28933
 Alpha virt. eigenvalues --    1.30169   1.62587   1.65493   1.65513   1.82954
 Alpha virt. eigenvalues --    1.85229   1.85230   2.08296   2.09116   2.09124
 Alpha virt. eigenvalues --    2.26814   2.30717   2.30725   2.43571   2.43580
 Alpha virt. eigenvalues --    2.48121   2.54594   2.59603   2.59642   2.69432
 Alpha virt. eigenvalues --    2.69507   3.06855   3.17789   3.89500   3.89644
 Alpha virt. eigenvalues --    4.42428   4.42429   4.52429   4.52435   4.80513
 Alpha virt. eigenvalues --    6.70267   7.69679   7.69680   7.79875   9.87809
 Alpha virt. eigenvalues --   24.08759  25.78778  25.78790  25.92606  48.26942
 Alpha virt. eigenvalues --  215.91008 290.84350 290.84351 290.974991020.76414
          Condensed to atoms (all electrons):
               1          2          3          4          5          6
     1  C    5.030866   0.406176   0.406200   0.406102  -0.011365   0.159119
     2  H    0.406176   0.487228  -0.018164  -0.018173  -0.002468  -0.048403
     3  H    0.406200  -0.018164   0.487341  -0.018167  -0.002457  -0.048425
     4  H    0.406102  -0.018173  -0.018167   0.487152  -0.002489  -0.048378
     5  Cl  -0.011365  -0.002468  -0.002457  -0.002489  17.948220   0.006115
     6  Br   0.159119  -0.048403  -0.048425  -0.048378   0.006115  35.228748
 Mulliken charges:
               1
     1  C   -0.397098
     2  H    0.193804
     3  H    0.193672
     4  H    0.193953
     5  Cl  -0.935555
     6  Br  -0.248776
 Sum of Mulliken charges =  -1.00000
 Mulliken charges with hydrogens summed into heavy atoms:
               1
     1  C    0.184332
     5  Cl  -0.935555
     6  Br  -0.248776
 Electronic spatial extent (au):  <R**2>=           1189.8067
 Charge=             -1.0000 electrons
 Dipole moment (field-independent basis, Debye):
    X=            -11.9592    Y=              0.0020    Z=              0.0050  Tot=             11.9592
 Quadrupole moment (field-independent basis, Debye-Ang):
   XX=            -99.8922   YY=            -43.0196   ZZ=            -43.0193
   XY=              0.0015   XZ=              0.0118   YZ=             -0.0000
 Traceless Quadrupole moment (field-independent basis, Debye-Ang):
   XX=            -37.9152   YY=             18.9574   ZZ=             18.9577
   XY=              0.0015   XZ=              0.0118   YZ=             -0.0000
 Octapole moment (field-independent basis, Debye-Ang**2):
  XXX=           -269.2860  YYY=              0.2876  ZZZ=             -0.9080  XYY=            -27.4551
  XXY=             -0.0055  XXZ=              0.0270  XZZ=            -27.4519  YZZ=             -0.2973
  YYZ=              0.9110  XYZ=             -0.0006
 Hexadecapole moment (field-independent basis, Debye-Ang**3):
 XXXX=          -2145.1498 YYYY=            -62.9740 ZZZZ=            -62.9893 XXXY=              0.0098
 XXXZ=              0.2409 YYYX=              0.1982 YYYZ=              0.0037 ZZZX=             -0.5406
 ZZZY=             -0.0028 XXYY=           -267.6445 XXZZ=           -267.6406 YYZZ=            -20.9908
 XXYZ=             -0.0017 YYXZ=              0.6823 ZZXY=             -0.2133
 N-N= 1.771675069863D+02 E-N=-7.706669109983D+03  KE= 3.070190271039D+03
 Calling FoFJK, ICntrl=      2127 FMM=F ISym2X=0 I1Cent= 0 IOpClX= 0 NMat=1 NMatS=1 NMatT=0.
 -------------------------------------------------------------------
 Center     Atomic                   Forces (Hartrees/Bohr)
 Number     Number              X              Y              Z
 -------------------------------------------------------------------
      1        6          -0.000223327   -0.000282486   -0.000609755
      2        1           0.000053397   -0.000085090    0.000077899
      3        1           0.000133560    0.000314871    0.000142859
      4        1          -0.000111667    0.000046384    0.000389866
      5       17           0.000884121    0.000012615   -0.000000646
      6       35          -0.000736084   -0.000006296   -0.000000223
 -------------------------------------------------------------------
 Cartesian Forces:  Max     0.000884121 RMS     0.000345232

 GradGradGradGradGradGradGradGradGradGradGradGradGradGradGradGradGradGrad
 Berny optimization.
 Search for a local minimum.
 Step number   1 out of a maximum of    2
 All quantities printed in internal units (Hartrees-Bohrs-Radians)
 Second derivative matrix not updated -- first step.
 The second derivative matrix:
                          X1        Y1        Z1        X2        Y2
           X1           0.44001
           Y1          -0.00009   0.64445
           Z1          -0.00003   0.00008   0.64327
           X2          -0.09880   0.07709  -0.05598   0.08271
           Y2           0.06615  -0.24373   0.11665  -0.07026   0.23774
           Z2          -0.04805   0.11669  -0.16789   0.05102  -0.12859
           X3          -0.09865  -0.08684  -0.03870   0.00803   0.01080
           Y3          -0.07449  -0.28834  -0.09143  -0.00835  -0.01190
           Z3          -0.03321  -0.09146  -0.12394   0.01255   0.01840
           X4          -0.09887   0.00993   0.09482   0.00807  -0.00669
           Y4           0.00852  -0.08568  -0.02530  -0.01457   0.01371
           Z4           0.08138  -0.02531  -0.32476   0.00409  -0.00356
           X5           0.00000   0.00000   0.00000   0.00000   0.00000
           Y5           0.00000   0.00000   0.00000   0.00000   0.00000
           Z5           0.00000   0.00000   0.00000   0.00000   0.00000
           X6          -0.14369  -0.00009  -0.00011  -0.00000  -0.00000
           Y6          -0.00008  -0.02670  -0.00000   0.01609   0.00418
           Z6          -0.00010  -0.00000  -0.02669  -0.01168  -0.00289
                          Z2        X3        Y3        Z3        X4
           Z2           0.15411
           X3           0.01057   0.08255
           Y3          -0.01192   0.07911   0.28685
           Z3           0.01860   0.03525   0.10077   0.10565
           X4          -0.01353   0.00805   0.00374  -0.01459   0.08278
           Y4           0.02668   0.01510   0.00816  -0.02994  -0.00906
           Z4          -0.00710   0.00098   0.00034  -0.00150  -0.08645
           X5           0.00000   0.00000   0.00000   0.00000   0.00000
           Y5           0.00000   0.00000   0.00000   0.00000   0.00000
           Z5           0.00000   0.00000   0.00000   0.00000   0.00000
           X6          -0.00000   0.00002  -0.00001  -0.00000  -0.00002
           Y6          -0.00287  -0.01817   0.00524   0.00224   0.00207
           Z6           0.00227  -0.00809   0.00225   0.00119   0.01975
                          Y4        Z4        X5        Y5        Z5
           Y4           0.06355
           Z4           0.02791   0.32715
           X5           0.00000   0.00000   1.00000
           Y5           0.00000   0.00000   0.00000   1.00000
           Z5           0.00000   0.00000   0.00000   0.00000   1.00000
           X6          -0.00000  -0.00001   0.00000   0.00000   0.00000
           Y6           0.00026   0.00063   0.00000   0.00000   0.00000
           Z6           0.00064   0.00621   0.00000   0.00000   0.00000
                          X6        Y6        Z6
           X6           0.14369
           Y6           0.00009   0.01702
           Z6           0.00012   0.00000   0.01701
 ITU=  0
     Eigenvalues ---    0.05080   0.05083   0.06551   0.07946   0.07949
     Eigenvalues ---    0.13733   0.13745   0.25954   0.63405   0.73875
     Eigenvalues ---    0.94277   0.94473
 Angle between quadratic step and forces=  51.94 degrees.
 Linear search not attempted -- first point.
 B after Tr=    -0.000697   -0.000046   -0.000127
         Rot=    1.000000   -0.000000    0.000012   -0.000006 Ang=  -0.00 deg.
 Variable       Old X    -DE/DX   Delta X   Delta X   Delta X     New X
                                 (Linear)    (Quad)   (Total)
    X1        0.73782  -0.00022   0.00000   0.00024  -0.00046   0.73736
    Y1        0.00236  -0.00028   0.00000  -0.00016  -0.00020   0.00217
    Z1        0.00357  -0.00061   0.00000  -0.00026  -0.00037   0.00320
    X2        1.35142   0.00005   0.00000   0.00156   0.00086   1.35228
    Y2       -1.57448  -0.00009   0.00000  -0.00013  -0.00016  -1.57464
    Z2        1.14888   0.00008   0.00000  -0.00020  -0.00029   1.14859
    X3        1.34864   0.00013   0.00000   0.00194   0.00120   1.34984
    Y3        1.78265   0.00031   0.00000   0.00040   0.00037   1.78303
    Z3        0.79695   0.00014   0.00000  -0.00000  -0.00010   0.79685
    X4        1.35446  -0.00011   0.00000   0.00093   0.00028   1.35474
    Y4       -0.20067   0.00005   0.00000   0.00005   0.00002  -0.20065
    Z4       -1.93527   0.00039   0.00000   0.00107   0.00098  -1.93429
    X5        6.46453   0.00088   0.00000   0.00120   0.00051   6.46503
    Y5       -0.00019   0.00001   0.00000   0.00002   0.00005  -0.00014
    Z5       -0.00136  -0.00000   0.00000   0.00000   0.00003  -0.00134
    X6       -3.02842  -0.00074   0.00000  -0.00169  -0.00238  -3.03080
    Y6       -0.00038  -0.00001   0.00000  -0.00000  -0.00008  -0.00046
    Z6       -0.00008  -0.00000   0.00000  -0.00004  -0.00024  -0.00031
         Item               Value     Threshold  Converged?
 Maximum Force            0.000884     0.000450     NO 
 RMS     Force            0.000345     0.000300     NO 
 Maximum Displacement     0.002382     0.001800     NO 
 RMS     Displacement     0.000740     0.001200     YES
 Predicted change in Energy=-2.215527D-06
 GradGradGradGradGradGradGradGradGradGradGradGradGradGradGradGradGradGrad

 1\1\GINC-FS\Force\RM062X\6-311G(d,p)\C1H3Br1Cl1(1-)\XINYAN\22-Jan-2019
 \0\\# M062X/6-311G** force nosymm int=ultrafine\\Title\\-1,1\C,0.39044
 ,0.00125,0.00189\H,0.71514,-0.83318,0.60796\H,0.71367,0.94334,0.42173\
 H,0.71675,-0.10619,-1.0241\Cl,3.42088,-0.0001,-0.00072\Br,-1.60257,-0.
 0002,-0.00004\\Version=ES64L-G16RevA.03\HF=-3074.3517456\RMSD=2.617e-0
 9\RMSF=3.452e-04\Dipole=-4.5020845,0.0008571,0.0020589\Quadrupole=-28.
 1890056,14.0943838,14.0946218,0.0011092,0.0087819,-0.0000175\PG=C01 [X
 (C1H3Br1Cl1)]\\@


 IF YOU BELIEVE CERTAIN WORDS, YOU BELIEVE THEIR HIDDEN ARGUMENTS.
 WHEN YOU BELIEVE SOMETHING IS RIGHT OR WRONG, TRUE OR FALSE, 
 YOU BELIEVE THE ASSUMPTIONS IN THE WORDS WHICH EXPRESS THE ARGUMENTS.
 SUCH ASSUMPTIONS ARE OFTEN FULL OF HOLES, BUT REMAIN MOST PRECIOUS 
 TO THE CONVINCED.

                 -- THE OPEN-ENDED PROOF FROM THE PANOPLIA PROPHETICA
                    CHILDREN OF DUNE BY FRANK HERBERT
 Job cpu time:       0 days  0 hours  0 minutes 39.6 seconds.
 Elapsed time:       0 days  0 hours  0 minutes  8.5 seconds.
 File lengths (MBytes):  RWF=     10 Int=      0 D2E=      0 Chk=      2 Scr=      1
 Normal termination of Gaussian 16 at Tue Jan 22 16:53:04 2019.
