 Entering Gaussian System, Link 0=g16
 Input=CH3BrCl-34.gjf
 Output=CH3BrCl-34.log
 Initial command:
 /home/xinyan/g16/l1.exe "/scratch/tmp/Gau-14150.inp" -scrdir="/scratch/tmp/"
 Entering Link 1 = /home/xinyan/g16/l1.exe PID=     14151.
  
 Copyright (c) 1988,1990,1992,1993,1995,1998,2003,2009,2016,
            Gaussian, Inc.  All Rights Reserved.
  
 This is part of the Gaussian(R) 16 program.  It is based on
 the Gaussian(R) 09 system (copyright 2009, Gaussian, Inc.),
 the Gaussian(R) 03 system (copyright 2003, Gaussian, Inc.),
 the Gaussian(R) 98 system (copyright 1998, Gaussian, Inc.),
 the Gaussian(R) 94 system (copyright 1995, Gaussian, Inc.),
 the Gaussian 92(TM) system (copyright 1992, Gaussian, Inc.),
 the Gaussian 90(TM) system (copyright 1990, Gaussian, Inc.),
 the Gaussian 88(TM) system (copyright 1988, Gaussian, Inc.),
 the Gaussian 86(TM) system (copyright 1986, Carnegie Mellon
 University), and the Gaussian 82(TM) system (copyright 1983,
 Carnegie Mellon University). Gaussian is a federally registered
 trademark of Gaussian, Inc.
  
 This software contains proprietary and confidential information,
 including trade secrets, belonging to Gaussian, Inc.
  
 This software is provided under written license and may be
 used, copied, transmitted, or stored only in accord with that
 written license.
  
 The following legend is applicable only to US Government
 contracts under FAR:
  
                    RESTRICTED RIGHTS LEGEND
  
 Use, reproduction and disclosure by the US Government is
 subject to restrictions as set forth in subparagraphs (a)
 and (c) of the Commercial Computer Software - Restricted
 Rights clause in FAR 52.227-19.
  
 Gaussian, Inc.
 340 Quinnipiac St., Bldg. 40, Wallingford CT 06492
  
  
 ---------------------------------------------------------------
 Warning -- This program may not be used in any manner that
 competes with the business of Gaussian, Inc. or will provide
 assistance to any competitor of Gaussian, Inc.  The licensee
 of this program is prohibited from giving any competitor of
 Gaussian, Inc. access to this program.  By using this program,
 the user acknowledges that Gaussian, Inc. is engaged in the
 business of creating and licensing software in the field of
 computational chemistry and represents and warrants to the
 licensee that it is not a competitor of Gaussian, Inc. and that
 it will not use this program in any manner prohibited above.
 ---------------------------------------------------------------
  

 Cite this work as:
 Gaussian 16, Revision A.03,
 M. J. Frisch, G. W. Trucks, H. B. Schlegel, G. E. Scuseria, 
 M. A. Robb, J. R. Cheeseman, G. Scalmani, V. Barone, 
 G. A. Petersson, H. Nakatsuji, X. Li, M. Caricato, A. V. Marenich, 
 J. Bloino, B. G. Janesko, R. Gomperts, B. Mennucci, H. P. Hratchian, 
 J. V. Ortiz, A. F. Izmaylov, J. L. Sonnenberg, D. Williams-Young, 
 F. Ding, F. Lipparini, F. Egidi, J. Goings, B. Peng, A. Petrone, 
 T. Henderson, D. Ranasinghe, V. G. Zakrzewski, J. Gao, N. Rega, 
 G. Zheng, W. Liang, M. Hada, M. Ehara, K. Toyota, R. Fukuda, 
 J. Hasegawa, M. Ishida, T. Nakajima, Y. Honda, O. Kitao, H. Nakai, 
 T. Vreven, K. Throssell, J. A. Montgomery, Jr., J. E. Peralta, 
 F. Ogliaro, M. J. Bearpark, J. J. Heyd, E. N. Brothers, K. N. Kudin, 
 V. N. Staroverov, T. A. Keith, R. Kobayashi, J. Normand, 
 K. Raghavachari, A. P. Rendell, J. C. Burant, S. S. Iyengar, 
 J. Tomasi, M. Cossi, J. M. Millam, M. Klene, C. Adamo, R. Cammi, 
 J. W. Ochterski, R. L. Martin, K. Morokuma, O. Farkas, 
 J. B. Foresman, and D. J. Fox, Gaussian, Inc., Wallingford CT, 2016.
 
 ******************************************
 Gaussian 16:  ES64L-G16RevA.03 25-Dec-2016
                22-Jan-2019 
 ******************************************
 %nproc=5
 Will use up to    5 processors via shared memory.
 -------------------------------------------
 # M062X/6-311G** force nosymm int=ultrafine
 -------------------------------------------
 1/10=7,30=1,38=1/1,3;
 2/12=2,15=1,17=6,18=5,40=1/2;
 3/5=4,6=6,7=101,11=2,25=1,30=1,71=1,74=-55,75=-5/1,2,3;
 4//1;
 5/5=2,38=5/2;
 6/7=2,8=2,9=2,10=2,28=1/1;
 7/29=1,30=1/1,2,3,16;
 1/10=7,30=1/3;
 99//99;
 -----
 Title
 -----
 Symbolic Z-matrix:
 Charge = -1 Multiplicity = 1
 C                     1.00657   0.00016   0.00121 
 H                     0.87783  -0.86724   0.6223 
 H                     0.87776   0.97167   0.44196 
 H                     0.87749  -0.10391  -1.06042 
 Cl                    3.17457  -0.00004  -0.00023 
 Br                   -1.59334  -0.00002  -0.00013 
 

 GradGradGradGradGradGradGradGradGradGradGradGradGradGradGradGradGradGrad
 Berny optimization.
 Initialization pass.
 Trust Radius=3.00D-01 FncErr=1.00D-07 GrdErr=1.00D-07 EigMax=2.50D+02 EigMin=1.00D-04
 Number of steps in this run=      2 maximum allowed number of steps=      2.
 GradGradGradGradGradGradGradGradGradGradGradGradGradGradGradGradGradGrad

                          Input orientation:                          
 ---------------------------------------------------------------------
 Center     Atomic      Atomic             Coordinates (Angstroms)
 Number     Number       Type             X           Y           Z
 ---------------------------------------------------------------------
      1          6           0        1.006570    0.000160    0.001210
      2          1           0        0.877830   -0.867240    0.622300
      3          1           0        0.877760    0.971670    0.441960
      4          1           0        0.877490   -0.103910   -1.060420
      5         17           0        3.174570   -0.000040   -0.000230
      6         35           0       -1.593340   -0.000020   -0.000130
 ---------------------------------------------------------------------
                    Distance matrix (angstroms):
                    1          2          3          4          5
     1  C    0.000000
     2  H    1.074574   0.000000
     3  H    1.074562   1.847732   0.000000
     4  H    1.074500   1.847761   1.847706   0.000000
     5  Cl   2.168000   2.532705   2.532802   2.532068   0.000000
     6  Br   2.599910   2.691871   2.691832   2.690726   4.767910
                    6
     6  Br   0.000000
 Symmetry turned off by external request.
 This structure is nearly, but not quite of a higher symmetry.
 Consider Symm=Loose if the higher symmetry is desired.
 Stoichiometry    CH3BrCl(1-)
 Framework group  C1[X(CH3BrCl)]
 Deg. of freedom    12
 Full point group                 C1      NOp   1
 Rotational constants (GHZ):         146.8758594           0.8882308           0.8882306
 Standard basis: 6-311G(d,p) (5D, 7F)
   106 basis functions,   195 primitive gaussians,   111 cartesian basis functions
    31 alpha electrons       31 beta electrons
       nuclear repulsion energy       174.7012556747 Hartrees.
 NAtoms=    6 NActive=    6 NUniq=    6 SFac= 1.00D+00 NAtFMM=   60 NAOKFM=F Big=F
 Integral buffers will be    131072 words long.
 Raffenetti 2 integral format.
 Two-electron integral symmetry is turned off.
 One-electron integrals computed using PRISM.
 NBasis=   106 RedAO= T EigKep=  1.10D-02  NBF=   106
 NBsUse=   106 1.00D-06 EigRej= -1.00D+00 NBFU=   106
 ExpMin= 1.03D-01 ExpMax= 4.40D+05 ExpMxC= 1.51D+04 IAcc=3 IRadAn=         5 AccDes= 0.00D+00
 Harris functional with IExCor= 1009 and IRadAn=       5 diagonalized for initial guess.
 HarFok:  IExCor= 1009 AccDes= 0.00D+00 IRadAn=         5 IDoV= 1 UseB2=F ITyADJ=14
 ICtDFT=  3500011 ScaDFX=  1.000000  1.000000  1.000000  1.000000
 FoFCou: FMM=F IPFlag=           0 FMFlag=      100000 FMFlg1=           0
         NFxFlg=           0 DoJE=T BraDBF=F KetDBF=T FulRan=T
         wScrn=  0.000000 ICntrl=       500 IOpCl=  0 I1Cent=   200000004 NGrid=           0
         NMat0=    1 NMatS0=      1 NMatT0=    0 NMatD0=    1 NMtDS0=    0 NMtDT0=    0
 Symmetry not used in FoFCou.
 Keep R1 ints in memory in canonical form, NReq=20756192.
 Requested convergence on RMS density matrix=1.00D-08 within 128 cycles.
 Requested convergence on MAX density matrix=1.00D-06.
 Requested convergence on             energy=1.00D-06.
 No special actions if energy rises.
 Integral accuracy reduced to 1.0D-05 until final iterations.
 Initial convergence to 1.0D-05 achieved.  Increase integral accuracy.
 SCF Done:  E(RM062X) =  -3074.34102537     A.U. after   14 cycles
            NFock= 14  Conv=0.48D-08     -V/T= 2.0014

 **********************************************************************

            Population analysis using the SCF density.

 **********************************************************************

 Alpha  occ. eigenvalues -- -485.07825-102.47111 -63.07062 -56.89677 -56.89619
 Alpha  occ. eigenvalues --  -56.89619 -10.45880  -9.61210  -8.75681  -7.33550
 Alpha  occ. eigenvalues --   -7.33156  -7.33156  -6.57969  -6.57727  -6.57727
 Alpha  occ. eigenvalues --   -2.61142  -2.61065  -2.61065  -2.60855  -2.60855
 Alpha  occ. eigenvalues --   -0.72599  -0.63982  -0.58184  -0.36983  -0.36981
 Alpha  occ. eigenvalues --   -0.25254  -0.19464  -0.19464  -0.12514  -0.12513
 Alpha  occ. eigenvalues --   -0.12005
 Alpha virt. eigenvalues --    0.15998   0.22634   0.28794   0.28799   0.44998
 Alpha virt. eigenvalues --    0.47004   0.47005   0.49463   0.49687   0.49688
 Alpha virt. eigenvalues --    0.54431   0.54435   0.66125   0.68552   0.75461
 Alpha virt. eigenvalues --    0.76788   0.76794   0.91595   0.91701   0.91703
 Alpha virt. eigenvalues --    0.91953   0.91956   0.95335   1.11516   1.11521
 Alpha virt. eigenvalues --    1.13798   1.13799   1.22542   1.28277   1.29482
 Alpha virt. eigenvalues --    1.29489   1.58950   1.63397   1.63404   1.71072
 Alpha virt. eigenvalues --    1.95286   1.95287   1.99577   2.11892   2.11895
 Alpha virt. eigenvalues --    2.20956   2.20957   2.28084   2.36303   2.36304
 Alpha virt. eigenvalues --    2.47820   2.60389   2.60391   2.63496   2.77815
 Alpha virt. eigenvalues --    2.77816   3.04593   3.14691   3.89491   3.89500
 Alpha virt. eigenvalues --    4.53043   4.53045   4.54333   4.54335   4.71282
 Alpha virt. eigenvalues --    6.77106   7.78726   7.78728   7.85649   9.84821
 Alpha virt. eigenvalues --   24.08400  25.71020  25.71023  26.10674  48.35368
 Alpha virt. eigenvalues --  215.89660 290.94919 290.94920 291.023491020.84248
          Condensed to atoms (all electrons):
               1          2          3          4          5          6
     1  C    4.993341   0.413321   0.413314   0.413422   0.096114   0.016181
     2  H    0.413321   0.496097  -0.016716  -0.016679  -0.050437  -0.027884
     3  H    0.413314  -0.016716   0.496101  -0.016685  -0.050424  -0.027883
     4  H    0.413422  -0.016679  -0.016685   0.496043  -0.050544  -0.027989
     5  Cl   0.096114  -0.050437  -0.050424  -0.050544  17.543060   0.016802
     6  Br   0.016181  -0.027884  -0.027883  -0.027989   0.016802  35.807531
 Mulliken charges:
               1
     1  C   -0.345693
     2  H    0.202298
     3  H    0.202293
     4  H    0.202432
     5  Cl  -0.504572
     6  Br  -0.756758
 Sum of Mulliken charges =  -1.00000
 Mulliken charges with hydrogens summed into heavy atoms:
               1
     1  C    0.261330
     5  Cl  -0.504572
     6  Br  -0.756758
 Electronic spatial extent (au):  <R**2>=           1095.1497
 Charge=             -1.0000 electrons
 Dipole moment (field-independent basis, Debye):
    X=             -1.0608    Y=              0.0005    Z=              0.0028  Tot=              1.0608
 Quadrupole moment (field-independent basis, Debye-Ang):
   XX=            -80.3734   YY=            -43.1230   ZZ=            -43.1222
   XY=              0.0000   XZ=              0.0022   YZ=             -0.0002
 Traceless Quadrupole moment (field-independent basis, Debye-Ang):
   XX=            -24.8339   YY=             12.4165   ZZ=             12.4173
   XY=              0.0000   XZ=              0.0022   YZ=             -0.0002
 Octapole moment (field-independent basis, Debye-Ang**2):
  XXX=           -130.1446  YYY=              0.3249  ZZZ=             -1.0798  XYY=            -19.0923
  XXY=              0.0003  XXZ=             -0.0018  XZZ=            -19.0934  YZZ=             -0.3246
  YYZ=              1.0740  XYZ=              0.0000
 Hexadecapole moment (field-independent basis, Debye-Ang**3):
 XXXX=          -1599.8454 YYYY=            -63.7364 ZZZZ=            -63.7383 XXXY=             -0.0027
 XXXZ=             -0.0178 YYYX=              0.2964 YYYZ=              0.0005 ZZZX=             -0.9867
 ZZZY=             -0.0018 XXYY=           -235.5641 XXZZ=           -235.5642 YYZZ=            -21.2424
 XXYZ=             -0.0011 YYXZ=              0.9801 ZZXY=             -0.2965
 N-N= 1.747012556747D+02 E-N=-7.703843155128D+03  KE= 3.070157701762D+03
 Calling FoFJK, ICntrl=      2127 FMM=F ISym2X=0 I1Cent= 0 IOpClX= 0 NMat=1 NMatS=1 NMatT=0.
 -------------------------------------------------------------------
 Center     Atomic                   Forces (Hartrees/Bohr)
 Number     Number              X              Y              Z
 -------------------------------------------------------------------
      1        6           0.021023167   -0.000009640   -0.000013153
      2        1           0.000200896    0.000350880   -0.000250084
      3        1           0.000205028   -0.000385895   -0.000176021
      4        1           0.000200006    0.000042686    0.000424144
      5       17          -0.010625104   -0.000000245    0.000022822
      6       35          -0.011003993    0.000002213   -0.000007708
 -------------------------------------------------------------------
 Cartesian Forces:  Max     0.021023167 RMS     0.006131090

 GradGradGradGradGradGradGradGradGradGradGradGradGradGradGradGradGradGrad
 Berny optimization.
 Search for a local minimum.
 Step number   1 out of a maximum of    2
 All quantities printed in internal units (Hartrees-Bohrs-Radians)
 Second derivative matrix not updated -- first step.
 The second derivative matrix:
                          X1        Y1        Z1        X2        Y2
           X1           0.31632
           Y1          -0.00002   0.72707
           Z1           0.00003   0.00000   0.72713
           X2          -0.07157  -0.02679   0.01919   0.05392
           Y2          -0.02894  -0.27706   0.11948   0.03067   0.26458
           Z2           0.02073   0.11947  -0.19574  -0.02198  -0.13610
           X3          -0.07158   0.03003   0.01363   0.00882  -0.00532
           Y3           0.03244  -0.31953  -0.09497   0.00413  -0.00986
           Z3           0.01472  -0.09496  -0.15328  -0.00653   0.02017
           X4          -0.07159  -0.00322  -0.03290   0.00883   0.00359
           Y4          -0.00348  -0.11261  -0.02451   0.00752   0.02079
           Z4          -0.03554  -0.02451  -0.36027  -0.00181  -0.00247
           X5          -0.10157   0.00001   0.00006   0.00001  -0.00000
           Y5           0.00001  -0.01786   0.00000  -0.01553   0.00155
           Z5           0.00006   0.00000  -0.01785   0.01112  -0.00107
           X6           0.00000   0.00000   0.00000   0.00000   0.00000
           Y6           0.00000   0.00000   0.00000   0.00000   0.00000
           Z6           0.00000   0.00000   0.00000   0.00000   0.00000
                          Z2        X3        Y3        Z3        X4
           Z2           0.17195
           X3          -0.00560   0.05393
           Y3          -0.01291  -0.03438   0.31296
           Z3           0.02681  -0.01561   0.10818   0.12358
           X4           0.00684   0.00883  -0.00219   0.00741   0.05395
           Y4           0.03060  -0.00773   0.01450  -0.03423   0.00369
           Z4          -0.00383  -0.00032  -0.00116   0.00245   0.03766
           X5           0.00000   0.00001   0.00000   0.00000  -0.00001
           Y5          -0.00106   0.01740   0.00193   0.00084  -0.00186
           Z5           0.00081   0.00789   0.00085   0.00043  -0.01901
           X6           0.00000   0.00000   0.00000   0.00000   0.00000
           Y6           0.00000   0.00000   0.00000   0.00000   0.00000
           Z6           0.00000   0.00000   0.00000   0.00000   0.00000
                          Y4        Z4        X5        Y5        Z5
           Y4           0.07725
           Z4           0.02792   0.35935
           X5           0.00000   0.00000   0.10157
           Y5           0.00007   0.00022  -0.00001   0.01432
           Z5           0.00022   0.00229  -0.00006  -0.00000   0.01432
           X6           0.00000   0.00000   0.00000   0.00000   0.00000
           Y6           0.00000   0.00000   0.00000   0.00000   0.00000
           Z6           0.00000   0.00000   0.00000   0.00000   0.00000
                          X6        Y6        Z6
           X6           1.00000
           Y6           0.00000   1.00000
           Z6           0.00000   0.00000   1.00000
 ITU=  0
     Eigenvalues ---    0.03633   0.03633   0.05788   0.05788   0.06059
     Eigenvalues ---    0.15992   0.15994   0.31251   0.42274   0.47010
     Eigenvalues ---    1.02182   1.02195
 Angle between quadratic step and forces=  49.20 degrees.
 Linear search not attempted -- first point.
 B after Tr=    -0.031816   -0.000009    0.000031
         Rot=    1.000000    0.000000    0.000002   -0.000002 Ang=   0.00 deg.
 Variable       Old X    -DE/DX   Delta X   Delta X   Delta X     New X
                                 (Linear)    (Quad)   (Total)
    X1        1.90214   0.02102   0.00000   0.08072   0.04890   1.95104
    Y1        0.00030  -0.00001   0.00000  -0.00001  -0.00001   0.00029
    Z1        0.00229  -0.00001   0.00000  -0.00009  -0.00005   0.00224
    X2        1.65886   0.00020   0.00000   0.06615   0.03434   1.69319
    Y2       -1.63885   0.00035   0.00000   0.00213   0.00213  -1.63672
    Z2        1.17598  -0.00025   0.00000  -0.00160  -0.00156   1.17441
    X3        1.65873   0.00021   0.00000   0.06625   0.03443   1.69315
    Y3        1.83619  -0.00039   0.00000  -0.00237  -0.00237   1.83382
    Z3        0.83518  -0.00018   0.00000  -0.00116  -0.00112   0.83406
    X4        1.65822   0.00020   0.00000   0.06614   0.03433   1.69255
    Y4       -0.19636   0.00004   0.00000   0.00026   0.00026  -0.19610
    Z4       -2.00390   0.00042   0.00000   0.00251   0.00255  -2.00135
    X5        5.99907  -0.01063   0.00000  -0.07056  -0.10238   5.89669
    Y5       -0.00008  -0.00000   0.00000   0.00001   0.00002  -0.00005
    Z5       -0.00043   0.00002   0.00000   0.00009   0.00015  -0.00028
    X6       -3.01098  -0.01100   0.00000  -0.01780  -0.04962  -3.06060
    Y6       -0.00004   0.00000   0.00000  -0.00001  -0.00003  -0.00007
    Z6       -0.00025  -0.00001   0.00000   0.00002   0.00003  -0.00021
         Item               Value     Threshold  Converged?
 Maximum Force            0.021023     0.000450     NO 
 RMS     Force            0.006131     0.000300     NO 
 Maximum Displacement     0.102375     0.001800     NO 
 RMS     Displacement     0.032402     0.001200     NO 
 Predicted change in Energy=-2.704004D-04
 GradGradGradGradGradGradGradGradGradGradGradGradGradGradGradGradGradGrad

 1\1\GINC-FS\Force\RM062X\6-311G(d,p)\C1H3Br1Cl1(1-)\XINYAN\22-Jan-2019
 \0\\# M062X/6-311G** force nosymm int=ultrafine\\Title\\-1,1\C,1.00657
 ,0.00016,0.00121\H,0.87783,-0.86724,0.6223\H,0.87776,0.97167,0.44196\H
 ,0.87749,-0.10391,-1.06042\Cl,3.17457,-0.00004,-0.00023\Br,-1.59334,-0
 .00002,-0.00013\\Version=ES64L-G16RevA.03\HF=-3074.3410254\RMSD=4.825e
 -09\RMSF=6.131e-03\Dipole=-0.2044358,0.0002059,0.0011695\Quadrupole=-1
 8.4633611,9.2313783,9.2319828,0.0000229,0.0016134,-0.0001843\PG=C01 [X
 (C1H3Br1Cl1)]\\@


 NEVER LISTEN TO CRITICISM
 OR YOU'LL BE DOIN' EVERYBODY ELSE'S THING BUT BUT YOUR OWN.

                                               -- ANDY CAPP
 Job cpu time:       0 days  0 hours  0 minutes 39.3 seconds.
 Elapsed time:       0 days  0 hours  0 minutes  8.6 seconds.
 File lengths (MBytes):  RWF=     10 Int=      0 D2E=      0 Chk=      2 Scr=      1
 Normal termination of Gaussian 16 at Tue Jan 22 16:54:04 2019.
