 Entering Gaussian System, Link 0=g16
 Input=CH3BrCl-47.gjf
 Output=CH3BrCl-47.log
 Initial command:
 /home/xinyan/g16/l1.exe "/scratch/tmp/Gau-15026.inp" -scrdir="/scratch/tmp/"
 Entering Link 1 = /home/xinyan/g16/l1.exe PID=     15027.
  
 Copyright (c) 1988,1990,1992,1993,1995,1998,2003,2009,2016,
            Gaussian, Inc.  All Rights Reserved.
  
 This is part of the Gaussian(R) 16 program.  It is based on
 the Gaussian(R) 09 system (copyright 2009, Gaussian, Inc.),
 the Gaussian(R) 03 system (copyright 2003, Gaussian, Inc.),
 the Gaussian(R) 98 system (copyright 1998, Gaussian, Inc.),
 the Gaussian(R) 94 system (copyright 1995, Gaussian, Inc.),
 the Gaussian 92(TM) system (copyright 1992, Gaussian, Inc.),
 the Gaussian 90(TM) system (copyright 1990, Gaussian, Inc.),
 the Gaussian 88(TM) system (copyright 1988, Gaussian, Inc.),
 the Gaussian 86(TM) system (copyright 1986, Carnegie Mellon
 University), and the Gaussian 82(TM) system (copyright 1983,
 Carnegie Mellon University). Gaussian is a federally registered
 trademark of Gaussian, Inc.
  
 This software contains proprietary and confidential information,
 including trade secrets, belonging to Gaussian, Inc.
  
 This software is provided under written license and may be
 used, copied, transmitted, or stored only in accord with that
 written license.
  
 The following legend is applicable only to US Government
 contracts under FAR:
  
                    RESTRICTED RIGHTS LEGEND
  
 Use, reproduction and disclosure by the US Government is
 subject to restrictions as set forth in subparagraphs (a)
 and (c) of the Commercial Computer Software - Restricted
 Rights clause in FAR 52.227-19.
  
 Gaussian, Inc.
 340 Quinnipiac St., Bldg. 40, Wallingford CT 06492
  
  
 ---------------------------------------------------------------
 Warning -- This program may not be used in any manner that
 competes with the business of Gaussian, Inc. or will provide
 assistance to any competitor of Gaussian, Inc.  The licensee
 of this program is prohibited from giving any competitor of
 Gaussian, Inc. access to this program.  By using this program,
 the user acknowledges that Gaussian, Inc. is engaged in the
 business of creating and licensing software in the field of
 computational chemistry and represents and warrants to the
 licensee that it is not a competitor of Gaussian, Inc. and that
 it will not use this program in any manner prohibited above.
 ---------------------------------------------------------------
  

 Cite this work as:
 Gaussian 16, Revision A.03,
 M. J. Frisch, G. W. Trucks, H. B. Schlegel, G. E. Scuseria, 
 M. A. Robb, J. R. Cheeseman, G. Scalmani, V. Barone, 
 G. A. Petersson, H. Nakatsuji, X. Li, M. Caricato, A. V. Marenich, 
 J. Bloino, B. G. Janesko, R. Gomperts, B. Mennucci, H. P. Hratchian, 
 J. V. Ortiz, A. F. Izmaylov, J. L. Sonnenberg, D. Williams-Young, 
 F. Ding, F. Lipparini, F. Egidi, J. Goings, B. Peng, A. Petrone, 
 T. Henderson, D. Ranasinghe, V. G. Zakrzewski, J. Gao, N. Rega, 
 G. Zheng, W. Liang, M. Hada, M. Ehara, K. Toyota, R. Fukuda, 
 J. Hasegawa, M. Ishida, T. Nakajima, Y. Honda, O. Kitao, H. Nakai, 
 T. Vreven, K. Throssell, J. A. Montgomery, Jr., J. E. Peralta, 
 F. Ogliaro, M. J. Bearpark, J. J. Heyd, E. N. Brothers, K. N. Kudin, 
 V. N. Staroverov, T. A. Keith, R. Kobayashi, J. Normand, 
 K. Raghavachari, A. P. Rendell, J. C. Burant, S. S. Iyengar, 
 J. Tomasi, M. Cossi, J. M. Millam, M. Klene, C. Adamo, R. Cammi, 
 J. W. Ochterski, R. L. Martin, K. Morokuma, O. Farkas, 
 J. B. Foresman, and D. J. Fox, Gaussian, Inc., Wallingford CT, 2016.
 
 ******************************************
 Gaussian 16:  ES64L-G16RevA.03 25-Dec-2016
                22-Jan-2019 
 ******************************************
 %nproc=5
 Will use up to    5 processors via shared memory.
 -------------------------------------------
 # M062X/6-311G** force nosymm int=ultrafine
 -------------------------------------------
 1/10=7,30=1,38=1/1,3;
 2/12=2,15=1,17=6,18=5,40=1/2;
 3/5=4,6=6,7=101,11=2,25=1,30=1,71=1,74=-55,75=-5/1,2,3;
 4//1;
 5/5=2,38=5/2;
 6/7=2,8=2,9=2,10=2,28=1/1;
 7/29=1,30=1/1,2,3,16;
 1/10=7,30=1/3;
 99//99;
 -----
 Title
 -----
 Symbolic Z-matrix:
 Charge = -1 Multiplicity = 1
 C                     1.31645   0.00027   0.00129 
 H                     1.00231  -0.8351    0.59951 
 H                     1.00256   0.9358    0.42624 
 H                     1.00069  -0.09944  -1.02084 
 Cl                    3.14843  -0.00007  -0.00022 
 Br                   -1.63363  -0.00003  -0.00016 
 

 GradGradGradGradGradGradGradGradGradGradGradGradGradGradGradGradGradGrad
 Berny optimization.
 Initialization pass.
 Trust Radius=3.00D-01 FncErr=1.00D-07 GrdErr=1.00D-07 EigMax=2.50D+02 EigMin=1.00D-04
 Number of steps in this run=      2 maximum allowed number of steps=      2.
 GradGradGradGradGradGradGradGradGradGradGradGradGradGradGradGradGradGrad

                          Input orientation:                          
 ---------------------------------------------------------------------
 Center     Atomic      Atomic             Coordinates (Angstroms)
 Number     Number       Type             X           Y           Z
 ---------------------------------------------------------------------
      1          6           0        1.316450    0.000270    0.001290
      2          1           0        1.002310   -0.835100    0.599510
      3          1           0        1.002560    0.935800    0.426240
      4          1           0        1.000690   -0.099440   -1.020840
      5         17           0        3.148430   -0.000070   -0.000220
      6         35           0       -1.633630   -0.000030   -0.000160
 ---------------------------------------------------------------------
                    Distance matrix (angstroms):
                    1          2          3          4          5
     1  C    0.000000
     2  H    1.074427   0.000000
     3  H    1.074396   1.779356   0.000000
     4  H    1.074428   1.779532   1.779260   0.000000
     5  Cl   1.831981   2.379660   2.379596   2.379985   0.000000
     6  Br   2.950080   2.829333   2.829681   2.826891   4.782060
                    6
     6  Br   0.000000
 Symmetry turned off by external request.
 Stoichiometry    CH3BrCl(1-)
 Framework group  C1[X(CH3BrCl)]
 Deg. of freedom    12
 Full point group                 C1      NOp   1
 Rotational constants (GHZ):         158.3759478           0.8673472           0.8673463
 Standard basis: 6-311G(d,p) (5D, 7F)
   106 basis functions,   195 primitive gaussians,   111 cartesian basis functions
    31 alpha electrons       31 beta electrons
       nuclear repulsion energy       173.7160700424 Hartrees.
 NAtoms=    6 NActive=    6 NUniq=    6 SFac= 1.00D+00 NAtFMM=   60 NAOKFM=F Big=F
 Integral buffers will be    131072 words long.
 Raffenetti 2 integral format.
 Two-electron integral symmetry is turned off.
 One-electron integrals computed using PRISM.
 NBasis=   106 RedAO= T EigKep=  1.06D-02  NBF=   106
 NBsUse=   106 1.00D-06 EigRej= -1.00D+00 NBFU=   106
 ExpMin= 1.03D-01 ExpMax= 4.40D+05 ExpMxC= 1.51D+04 IAcc=3 IRadAn=         5 AccDes= 0.00D+00
 Harris functional with IExCor= 1009 and IRadAn=       5 diagonalized for initial guess.
 HarFok:  IExCor= 1009 AccDes= 0.00D+00 IRadAn=         5 IDoV= 1 UseB2=F ITyADJ=14
 ICtDFT=  3500011 ScaDFX=  1.000000  1.000000  1.000000  1.000000
 FoFCou: FMM=F IPFlag=           0 FMFlag=      100000 FMFlg1=           0
         NFxFlg=           0 DoJE=T BraDBF=F KetDBF=T FulRan=T
         wScrn=  0.000000 ICntrl=       500 IOpCl=  0 I1Cent=   200000004 NGrid=           0
         NMat0=    1 NMatS0=      1 NMatT0=    0 NMatD0=    1 NMtDS0=    0 NMtDT0=    0
 Symmetry not used in FoFCou.
 Keep R1 ints in memory in canonical form, NReq=20756204.
 Requested convergence on RMS density matrix=1.00D-08 within 128 cycles.
 Requested convergence on MAX density matrix=1.00D-06.
 Requested convergence on             energy=1.00D-06.
 No special actions if energy rises.
 Integral accuracy reduced to 1.0D-05 until final iterations.
 Initial convergence to 1.0D-05 achieved.  Increase integral accuracy.
 SCF Done:  E(RM062X) =  -3074.35596399     A.U. after   14 cycles
            NFock= 14  Conv=0.29D-08     -V/T= 2.0013

 **********************************************************************

            Population analysis using the SCF density.

 **********************************************************************

 Alpha  occ. eigenvalues -- -485.03975-102.52339 -63.03204 -56.85787 -56.85785
 Alpha  occ. eigenvalues --  -56.85784 -10.43923  -9.66576  -8.71804  -7.39019
 Alpha  occ. eigenvalues --   -7.38463  -7.38463  -6.53957  -6.53927  -6.53927
 Alpha  occ. eigenvalues --   -2.57144  -2.57134  -2.57134  -2.57112  -2.57111
 Alpha  occ. eigenvalues --   -0.80478  -0.62369  -0.55320  -0.36997  -0.36993
 Alpha  occ. eigenvalues --   -0.32333  -0.22886  -0.22885  -0.09259  -0.09258
 Alpha  occ. eigenvalues --   -0.09161
 Alpha virt. eigenvalues --    0.21013   0.23694   0.28761   0.28768   0.43488
 Alpha virt. eigenvalues --    0.46752   0.46754   0.47319   0.47321   0.53216
 Alpha virt. eigenvalues --    0.56554   0.56560   0.61409   0.72492   0.74010
 Alpha virt. eigenvalues --    0.77114   0.77120   0.87607   0.94961   0.94963
 Alpha virt. eigenvalues --    0.95697   0.95702   1.00542   1.02225   1.02226
 Alpha virt. eigenvalues --    1.08715   1.08717   1.17593   1.25857   1.33383
 Alpha virt. eigenvalues --    1.33388   1.63314   1.66079   1.66087   1.88143
 Alpha virt. eigenvalues --    1.88147   1.89823   2.06654   2.17346   2.17355
 Alpha virt. eigenvalues --    2.27185   2.27190   2.27918   2.39056   2.39066
 Alpha virt. eigenvalues --    2.54774   2.56234   2.60420   2.60427   2.71636
 Alpha virt. eigenvalues --    2.71644   3.10269   3.31591   3.92416   3.92432
 Alpha virt. eigenvalues --    4.56625   4.56627   4.57530   4.57535   4.70466
 Alpha virt. eigenvalues --    6.79306   7.82052   7.82055   7.87776   9.86499
 Alpha virt. eigenvalues --   24.10129  25.70071  25.70074  26.24686  48.38000
 Alpha virt. eigenvalues --  215.91762 290.98624 290.98627 291.042841020.86537
          Condensed to atoms (all electrons):
               1          2          3          4          5          6
     1  C    5.061586   0.409688   0.409681   0.409718   0.131874  -0.034507
     2  H    0.409688   0.506120  -0.020176  -0.020144  -0.061431  -0.002713
     3  H    0.409681  -0.020176   0.506175  -0.020173  -0.061428  -0.002706
     4  H    0.409718  -0.020144  -0.020173   0.505913  -0.061401  -0.002744
     5  Cl   0.131874  -0.061431  -0.061428  -0.061401  17.306212   0.010645
     6  Br  -0.034507  -0.002713  -0.002706  -0.002744   0.010645  35.945626
 Mulliken charges:
               1
     1  C   -0.388041
     2  H    0.188656
     3  H    0.188627
     4  H    0.188831
     5  Cl  -0.264471
     6  Br  -0.913602
 Sum of Mulliken charges =  -1.00000
 Mulliken charges with hydrogens summed into heavy atoms:
               1
     1  C    0.178073
     5  Cl  -0.264471
     6  Br  -0.913602
 Electronic spatial extent (au):  <R**2>=           1112.0705
 Charge=             -1.0000 electrons
 Dipole moment (field-independent basis, Debye):
    X=              3.3120    Y=              0.0009    Z=              0.0028  Tot=              3.3120
 Quadrupole moment (field-independent basis, Debye-Ang):
   XX=            -71.7988   YY=            -43.1509   ZZ=            -43.1494
   XY=              0.0005   XZ=              0.0022   YZ=             -0.0006
 Traceless Quadrupole moment (field-independent basis, Debye-Ang):
   XX=            -19.0991   YY=              9.5488   ZZ=              9.5502
   XY=              0.0005   XZ=              0.0022   YZ=             -0.0006
 Octapole moment (field-independent basis, Debye-Ang**2):
  XXX=            -78.8256  YYY=              0.2606  ZZZ=             -0.8738  XYY=            -16.1455
  XXY=              0.0013  XXZ=              0.0012  XZZ=            -16.1486  YZZ=             -0.2613
  YYZ=              0.8657  XYZ=             -0.0003
 Hexadecapole moment (field-independent basis, Debye-Ang**3):
 XXXX=          -1475.8026 YYYY=            -63.6129 ZZZZ=            -63.6147 XXXY=             -0.0075
 XXXZ=             -0.0476 YYYX=              0.2811 YYYZ=              0.0011 ZZZX=             -0.9644
 ZZZY=             -0.0021 XXYY=           -232.6923 XXZZ=           -232.6933 YYZZ=            -21.2012
 XXYZ=             -0.0014 YYXZ=              0.9337 ZZXY=             -0.2841
 N-N= 1.737160700424D+02 E-N=-7.702441582791D+03  KE= 3.070298501975D+03
 Calling FoFJK, ICntrl=      2127 FMM=F ISym2X=0 I1Cent= 0 IOpClX= 0 NMat=1 NMatS=1 NMatT=0.
 -------------------------------------------------------------------
 Center     Atomic                   Forces (Hartrees/Bohr)
 Number     Number              X              Y              Z
 -------------------------------------------------------------------
      1        6           0.009201837   -0.000004536   -0.000007204
      2        1          -0.002395610   -0.002941665    0.002108165
      3        1          -0.002395128    0.003318051    0.001511758
      4        1          -0.002341717   -0.000348841   -0.003576031
      5       17           0.008759527   -0.000008639   -0.000021926
      6       35          -0.010828909   -0.000014371   -0.000014763
 -------------------------------------------------------------------
 Cartesian Forces:  Max     0.010828909 RMS     0.004313615

 GradGradGradGradGradGradGradGradGradGradGradGradGradGradGradGradGradGrad
 Berny optimization.
 Search for a local minimum.
 Step number   1 out of a maximum of    2
 All quantities printed in internal units (Hartrees-Bohrs-Radians)
 Second derivative matrix not updated -- first step.
 The second derivative matrix:
                          X1        Y1        Z1        X2        Y2
           X1           0.53217
           Y1           0.00003   0.66577
           Z1           0.00022  -0.00006   0.66582
           X2          -0.09814  -0.07601   0.05439   0.08214
           Y2          -0.06679  -0.25249   0.11963   0.07076   0.24589
           Z2           0.04779   0.11966  -0.17114  -0.05065  -0.13163
           X3          -0.09809   0.08507   0.03862   0.00797  -0.01065
           Y3           0.07474  -0.29501  -0.09520   0.00837  -0.01197
           Z3           0.03393  -0.09521  -0.12870  -0.01254   0.01850
           X4          -0.09842  -0.00913  -0.09340   0.00802   0.00668
           Y4          -0.00802  -0.08782  -0.02438   0.01462   0.01409
           Z4          -0.08211  -0.02439  -0.33553  -0.00390  -0.00344
           X5          -0.23751   0.00004   0.00017   0.00001  -0.00000
           Y5           0.00003  -0.03044   0.00000  -0.01774   0.00449
           Z5           0.00016   0.00000  -0.03046   0.01270  -0.00307
           X6           0.00000   0.00000   0.00000   0.00000   0.00000
           Y6           0.00000   0.00000   0.00000   0.00000   0.00000
           Z6           0.00000   0.00000   0.00000   0.00000   0.00000
                          Z2        X3        Y3        Z3        X4
           Z2           0.15636
           X3          -0.01068   0.08210
           Y3          -0.01233  -0.07919   0.29266
           Z3           0.01925  -0.03596   0.10473   0.10968
           X4           0.01353   0.00801  -0.00393   0.01456   0.08242
           Y4           0.02735  -0.01510   0.00876  -0.03044   0.00849
           Z4          -0.00685  -0.00100   0.00036  -0.00153   0.08701
           X5           0.00000   0.00001   0.00000   0.00000  -0.00002
           Y5          -0.00305   0.01987   0.00557   0.00242  -0.00212
           Z5           0.00238   0.00902   0.00244   0.00130  -0.02170
           X6           0.00000   0.00000   0.00000   0.00000   0.00000
           Y6           0.00000   0.00000   0.00000   0.00000   0.00000
           Z6           0.00000   0.00000   0.00000   0.00000   0.00000
                          Y4        Z4        X5        Y5        Z5
           Y4           0.06472
           Z4           0.02684   0.33726
           X5           0.00000   0.00001   0.23751
           Y5           0.00026   0.00063  -0.00004   0.02013
           Z5           0.00063   0.00664  -0.00018  -0.00000   0.02014
           X6           0.00000   0.00000   0.00000   0.00000   0.00000
           Y6           0.00000   0.00000   0.00000   0.00000   0.00000
           Z6           0.00000   0.00000   0.00000   0.00000   0.00000
                          X6        Y6        Z6
           X6           1.00000
           Y6           0.00000   1.00000
           Z6           0.00000   0.00000   1.00000
 ITU=  0
     Eigenvalues ---    0.02880   0.02880   0.07005   0.07006   0.08999
     Eigenvalues ---    0.13869   0.13870   0.29724   0.47463   0.75280
     Eigenvalues ---    0.96006   0.96017
 Angle between quadratic step and forces=  36.44 degrees.
 Linear search not attempted -- first point.
 B after Tr=     0.005244   -0.000096    0.000014
         Rot=    1.000000    0.000000   -0.000015   -0.000002 Ang=   0.00 deg.
 Variable       Old X    -DE/DX   Delta X   Delta X   Delta X     New X
                                 (Linear)    (Quad)   (Total)
    X1        2.48773   0.00920   0.00000   0.01394   0.01919   2.50692
    Y1        0.00051  -0.00000   0.00000   0.00016   0.00008   0.00059
    Z1        0.00244  -0.00001   0.00000   0.00018   0.00012   0.00256
    X2        1.89409  -0.00240   0.00000  -0.02010  -0.01481   1.87928
    Y2       -1.57811  -0.00294   0.00000  -0.00187  -0.00195  -1.58006
    Z2        1.13291   0.00211   0.00000   0.00148   0.00144   1.13434
    X3        1.89456  -0.00240   0.00000  -0.01989  -0.01463   1.87994
    Y3        1.76841   0.00332   0.00000   0.00252   0.00243   1.77084
    Z3        0.80548   0.00151   0.00000   0.00112   0.00108   0.80655
    X4        1.89103  -0.00234   0.00000  -0.01908  -0.01390   1.87713
    Y4       -0.18791  -0.00035   0.00000  -0.00009  -0.00018  -0.18809
    Z4       -1.92911  -0.00358   0.00000  -0.00236  -0.00241  -1.93152
    X5        5.94967   0.00876   0.00000   0.03118   0.03643   5.98610
    Y5       -0.00013  -0.00001   0.00000  -0.00013  -0.00020  -0.00033
    Z5       -0.00042  -0.00002   0.00000  -0.00015  -0.00032  -0.00074
    X6       -3.08711  -0.01083   0.00000  -0.01752  -0.01228  -3.09939
    Y6       -0.00006  -0.00001   0.00000  -0.00007  -0.00018  -0.00024
    Z6       -0.00030  -0.00001   0.00000  -0.00001   0.00010  -0.00020
         Item               Value     Threshold  Converged?
 Maximum Force            0.010829     0.000450     NO 
 RMS     Force            0.004314     0.000300     NO 
 Maximum Displacement     0.036428     0.001800     NO 
 RMS     Displacement     0.011765     0.001200     NO 
 Predicted change in Energy=-4.575125D-04
 GradGradGradGradGradGradGradGradGradGradGradGradGradGradGradGradGradGrad

 1\1\GINC-FS\Force\RM062X\6-311G(d,p)\C1H3Br1Cl1(1-)\XINYAN\22-Jan-2019
 \0\\# M062X/6-311G** force nosymm int=ultrafine\\Title\\-1,1\C,1.31645
 ,0.00027,0.00129\H,1.00231,-0.8351,0.59951\H,1.00256,0.9358,0.42624\H,
 1.00069,-0.09944,-1.02084\Cl,3.14843,-0.00007,-0.00022\Br,-1.63363,-0.
 00003,-0.00016\\Version=ES64L-G16RevA.03\HF=-3074.355964\RMSD=2.943e-0
 9\RMSF=4.314e-03\Dipole=1.5276484,0.0003644,0.0012116\Quadrupole=-14.1
 996968,7.099326,7.1003709,0.0003557,0.0016504,-0.000447\PG=C01 [X(C1H3
 Br1Cl1)]\\@


 THE ... SCIENTISTS WERE WRONG ... THE MOST PERSISTENT PRINCIPLES 
 OF THE UNIVERSE WERE ACCIDENT AND ERROR.

                          -- FRANK HERBERT IN DUNE
 Job cpu time:       0 days  0 hours  0 minutes 36.3 seconds.
 Elapsed time:       0 days  0 hours  0 minutes  8.0 seconds.
 File lengths (MBytes):  RWF=     10 Int=      0 D2E=      0 Chk=      2 Scr=      1
 Normal termination of Gaussian 16 at Tue Jan 22 16:55:53 2019.
