 Entering Gaussian System, Link 0=g16
 Input=CH3BrCl-18.gjf
 Output=CH3BrCl-18.log
 Initial command:
 /home/xinyan/g16/l1.exe "/scratch/tmp/Gau-12949.inp" -scrdir="/scratch/tmp/"
 Entering Link 1 = /home/xinyan/g16/l1.exe PID=     12950.
  
 Copyright (c) 1988,1990,1992,1993,1995,1998,2003,2009,2016,
            Gaussian, Inc.  All Rights Reserved.
  
 This is part of the Gaussian(R) 16 program.  It is based on
 the Gaussian(R) 09 system (copyright 2009, Gaussian, Inc.),
 the Gaussian(R) 03 system (copyright 2003, Gaussian, Inc.),
 the Gaussian(R) 98 system (copyright 1998, Gaussian, Inc.),
 the Gaussian(R) 94 system (copyright 1995, Gaussian, Inc.),
 the Gaussian 92(TM) system (copyright 1992, Gaussian, Inc.),
 the Gaussian 90(TM) system (copyright 1990, Gaussian, Inc.),
 the Gaussian 88(TM) system (copyright 1988, Gaussian, Inc.),
 the Gaussian 86(TM) system (copyright 1986, Carnegie Mellon
 University), and the Gaussian 82(TM) system (copyright 1983,
 Carnegie Mellon University). Gaussian is a federally registered
 trademark of Gaussian, Inc.
  
 This software contains proprietary and confidential information,
 including trade secrets, belonging to Gaussian, Inc.
  
 This software is provided under written license and may be
 used, copied, transmitted, or stored only in accord with that
 written license.
  
 The following legend is applicable only to US Government
 contracts under FAR:
  
                    RESTRICTED RIGHTS LEGEND
  
 Use, reproduction and disclosure by the US Government is
 subject to restrictions as set forth in subparagraphs (a)
 and (c) of the Commercial Computer Software - Restricted
 Rights clause in FAR 52.227-19.
  
 Gaussian, Inc.
 340 Quinnipiac St., Bldg. 40, Wallingford CT 06492
  
  
 ---------------------------------------------------------------
 Warning -- This program may not be used in any manner that
 competes with the business of Gaussian, Inc. or will provide
 assistance to any competitor of Gaussian, Inc.  The licensee
 of this program is prohibited from giving any competitor of
 Gaussian, Inc. access to this program.  By using this program,
 the user acknowledges that Gaussian, Inc. is engaged in the
 business of creating and licensing software in the field of
 computational chemistry and represents and warrants to the
 licensee that it is not a competitor of Gaussian, Inc. and that
 it will not use this program in any manner prohibited above.
 ---------------------------------------------------------------
  

 Cite this work as:
 Gaussian 16, Revision A.03,
 M. J. Frisch, G. W. Trucks, H. B. Schlegel, G. E. Scuseria, 
 M. A. Robb, J. R. Cheeseman, G. Scalmani, V. Barone, 
 G. A. Petersson, H. Nakatsuji, X. Li, M. Caricato, A. V. Marenich, 
 J. Bloino, B. G. Janesko, R. Gomperts, B. Mennucci, H. P. Hratchian, 
 J. V. Ortiz, A. F. Izmaylov, J. L. Sonnenberg, D. Williams-Young, 
 F. Ding, F. Lipparini, F. Egidi, J. Goings, B. Peng, A. Petrone, 
 T. Henderson, D. Ranasinghe, V. G. Zakrzewski, J. Gao, N. Rega, 
 G. Zheng, W. Liang, M. Hada, M. Ehara, K. Toyota, R. Fukuda, 
 J. Hasegawa, M. Ishida, T. Nakajima, Y. Honda, O. Kitao, H. Nakai, 
 T. Vreven, K. Throssell, J. A. Montgomery, Jr., J. E. Peralta, 
 F. Ogliaro, M. J. Bearpark, J. J. Heyd, E. N. Brothers, K. N. Kudin, 
 V. N. Staroverov, T. A. Keith, R. Kobayashi, J. Normand, 
 K. Raghavachari, A. P. Rendell, J. C. Burant, S. S. Iyengar, 
 J. Tomasi, M. Cossi, J. M. Millam, M. Klene, C. Adamo, R. Cammi, 
 J. W. Ochterski, R. L. Martin, K. Morokuma, O. Farkas, 
 J. B. Foresman, and D. J. Fox, Gaussian, Inc., Wallingford CT, 2016.
 
 ******************************************
 Gaussian 16:  ES64L-G16RevA.03 25-Dec-2016
                22-Jan-2019 
 ******************************************
 %nproc=5
 Will use up to    5 processors via shared memory.
 -------------------------------------------
 # M062X/6-311G** force nosymm int=ultrafine
 -------------------------------------------
 1/10=7,30=1,38=1/1,3;
 2/12=2,15=1,17=6,18=5,40=1/2;
 3/5=4,6=6,7=101,11=2,25=1,30=1,71=1,74=-55,75=-5/1,2,3;
 4//1;
 5/5=2,38=5/2;
 6/7=2,8=2,9=2,10=2,28=1/1;
 7/29=1,30=1/1,2,3,16;
 1/10=7,30=1/3;
 99//99;
 -----
 Title
 -----
 Symbolic Z-matrix:
 Charge = -1 Multiplicity = 1
 C                     0.4369    0.0005    0.00135 
 H                     0.75054  -0.83819   0.60317 
 H                     0.74993   0.94104   0.42723 
 H                     0.75153  -0.10094  -1.02555 
 Cl                    3.29969  -0.00012  -0.00037 
 Br                   -1.55729  -0.00005  -0.00011 
 

 GradGradGradGradGradGradGradGradGradGradGradGradGradGradGradGradGradGrad
 Berny optimization.
 Initialization pass.
 Trust Radius=3.00D-01 FncErr=1.00D-07 GrdErr=1.00D-07 EigMax=2.50D+02 EigMin=1.00D-04
 Number of steps in this run=      2 maximum allowed number of steps=      2.
 GradGradGradGradGradGradGradGradGradGradGradGradGradGradGradGradGradGrad

                          Input orientation:                          
 ---------------------------------------------------------------------
 Center     Atomic      Atomic             Coordinates (Angstroms)
 Number     Number       Type             X           Y           Z
 ---------------------------------------------------------------------
      1          6           0        0.436900    0.000500    0.001350
      2          1           0        0.750540   -0.838190    0.603170
      3          1           0        0.749930    0.941040    0.427230
      4          1           0        0.751530   -0.100940   -1.025550
      5         17           0        3.299690   -0.000120   -0.000370
      6         35           0       -1.557290   -0.000050   -0.000110
 ---------------------------------------------------------------------
                    Distance matrix (angstroms):
                    1          2          3          4          5
     1  C    0.000000
     2  H    1.078869   0.000000
     3  H    1.078878   1.787908   0.000000
     4  H    1.078798   1.787811   1.787818   0.000000
     5  Cl   2.862791   2.750416   2.751345   2.748505   0.000000
     6  Br   1.994191   2.528340   2.528148   2.528311   4.856980
                    6
     6  Br   0.000000
 Symmetry turned off by external request.
 This structure is nearly, but not quite of a higher symmetry.
 Consider Symm=Loose if the higher symmetry is desired.
 Stoichiometry    CH3BrCl(1-)
 Framework group  C1[X(CH3BrCl)]
 Deg. of freedom    12
 Full point group                 C1      NOp   1
 Rotational constants (GHZ):         156.8797229           0.8747620           0.8747617
 Standard basis: 6-311G(d,p) (5D, 7F)
   106 basis functions,   195 primitive gaussians,   111 cartesian basis functions
    31 alpha electrons       31 beta electrons
       nuclear repulsion energy       180.9136804180 Hartrees.
 NAtoms=    6 NActive=    6 NUniq=    6 SFac= 1.00D+00 NAtFMM=   60 NAOKFM=F Big=F
 Integral buffers will be    131072 words long.
 Raffenetti 2 integral format.
 Two-electron integral symmetry is turned off.
 One-electron integrals computed using PRISM.
 NBasis=   106 RedAO= T EigKep=  9.91D-03  NBF=   106
 NBsUse=   106 1.00D-06 EigRej= -1.00D+00 NBFU=   106
 ExpMin= 1.03D-01 ExpMax= 4.40D+05 ExpMxC= 1.51D+04 IAcc=3 IRadAn=         5 AccDes= 0.00D+00
 Harris functional with IExCor= 1009 and IRadAn=       5 diagonalized for initial guess.
 HarFok:  IExCor= 1009 AccDes= 0.00D+00 IRadAn=         5 IDoV= 1 UseB2=F ITyADJ=14
 ICtDFT=  3500011 ScaDFX=  1.000000  1.000000  1.000000  1.000000
 FoFCou: FMM=F IPFlag=           0 FMFlag=      100000 FMFlg1=           0
         NFxFlg=           0 DoJE=T BraDBF=F KetDBF=T FulRan=T
         wScrn=  0.000000 ICntrl=       500 IOpCl=  0 I1Cent=   200000004 NGrid=           0
         NMat0=    1 NMatS0=      1 NMatT0=    0 NMatD0=    1 NMtDS0=    0 NMtDT0=    0
 Symmetry not used in FoFCou.
 Keep R1 ints in memory in canonical form, NReq=20756204.
 Requested convergence on RMS density matrix=1.00D-08 within 128 cycles.
 Requested convergence on MAX density matrix=1.00D-06.
 Requested convergence on             energy=1.00D-06.
 No special actions if energy rises.
 Integral accuracy reduced to 1.0D-05 until final iterations.
 Initial convergence to 1.0D-05 achieved.  Increase integral accuracy.
 SCF Done:  E(RM062X) =  -3074.35056344     A.U. after   13 cycles
            NFock= 13  Conv=0.44D-08     -V/T= 2.0013

 **********************************************************************

            Population analysis using the SCF density.

 **********************************************************************

 Alpha  occ. eigenvalues -- -485.18505-102.36365 -63.17734 -57.00447 -57.00238
 Alpha  occ. eigenvalues --  -57.00238 -10.44008  -9.50552  -8.86430  -7.22668
 Alpha  occ. eigenvalues --   -7.22644  -7.22644  -6.69105  -6.68267  -6.68267
 Alpha  occ. eigenvalues --   -2.72259  -2.71971  -2.71971  -2.71229  -2.71229
 Alpha  occ. eigenvalues --   -0.75079  -0.61791  -0.58806  -0.36124  -0.36122
 Alpha  occ. eigenvalues --   -0.29456  -0.20493  -0.20493  -0.10665  -0.10665
 Alpha  occ. eigenvalues --   -0.10523
 Alpha virt. eigenvalues --    0.17767   0.23961   0.28917   0.28926   0.44188
 Alpha virt. eigenvalues --    0.45985   0.45987   0.47160   0.47162   0.54987
 Alpha virt. eigenvalues --    0.56694   0.56703   0.57038   0.68995   0.76491
 Alpha virt. eigenvalues --    0.76498   0.78170   0.82025   0.82027   0.85670
 Alpha virt. eigenvalues --    0.85672   0.91995   1.02265   1.10322   1.23169
 Alpha virt. eigenvalues --    1.23170   1.23601   1.23603   1.29845   1.29849
 Alpha virt. eigenvalues --    1.33907   1.62953   1.65987   1.65992   1.84442
 Alpha virt. eigenvalues --    1.86147   1.86149   2.08190   2.09799   2.09801
 Alpha virt. eigenvalues --    2.27858   2.30648   2.30649   2.43716   2.43720
 Alpha virt. eigenvalues --    2.50220   2.57189   2.60391   2.60395   2.70758
 Alpha virt. eigenvalues --    2.70769   3.10985   3.18248   3.90361   3.90369
 Alpha virt. eigenvalues --    4.43129   4.43129   4.53095   4.53097   4.81392
 Alpha virt. eigenvalues --    6.71032   7.70360   7.70361   7.80729   9.89235
 Alpha virt. eigenvalues --   24.09952  25.79070  25.79078  25.98146  48.27718
 Alpha virt. eigenvalues --  215.92965 290.85114 290.85115 290.984061020.77204
          Condensed to atoms (all electrons):
               1          2          3          4          5          6
     1  C    5.033303   0.411296   0.411286   0.411341  -0.014622   0.144287
     2  H    0.411296   0.491256  -0.017704  -0.017680  -0.009869  -0.051612
     3  H    0.411286  -0.017704   0.491350  -0.017687  -0.009857  -0.051632
     4  H    0.411341  -0.017680  -0.017687   0.491080  -0.009910  -0.051624
     5  Cl  -0.014622  -0.009869  -0.009857  -0.009910  17.953635   0.009811
     6  Br   0.144287  -0.051612  -0.051632  -0.051624   0.009811  35.267727
 Mulliken charges:
               1
     1  C   -0.396892
     2  H    0.194313
     3  H    0.194243
     4  H    0.194481
     5  Cl  -0.919189
     6  Br  -0.266957
 Sum of Mulliken charges =  -1.00000
 Mulliken charges with hydrogens summed into heavy atoms:
               1
     1  C    0.186146
     5  Cl  -0.919189
     6  Br  -0.266957
 Electronic spatial extent (au):  <R**2>=           1121.0153
 Charge=             -1.0000 electrons
 Dipole moment (field-independent basis, Debye):
    X=            -11.1420    Y=              0.0012    Z=              0.0032  Tot=             11.1420
 Quadrupole moment (field-independent basis, Debye-Ang):
   XX=            -96.0660   YY=            -43.0083   ZZ=            -43.0079
   XY=              0.0018   XZ=              0.0065   YZ=             -0.0002
 Traceless Quadrupole moment (field-independent basis, Debye-Ang):
   XX=            -35.3720   YY=             17.6858   ZZ=             17.6862
   XY=              0.0018   XZ=              0.0065   YZ=             -0.0002
 Octapole moment (field-independent basis, Debye-Ang**2):
  XXX=           -246.9552  YYY=              0.2780  ZZZ=             -0.9192  XYY=            -26.3776
  XXY=              0.0023  XXZ=              0.0094  XZZ=            -26.3758  YZZ=             -0.2796
  YYZ=              0.9156  XYZ=             -0.0004
 Hexadecapole moment (field-independent basis, Debye-Ang**3):
 XXXX=          -1967.1254 YYYY=            -62.9847 ZZZZ=            -62.9885 XXXY=              0.0291
 XXXZ=              0.1019 YYYX=              0.2194 YYYZ=              0.0018 ZZZX=             -0.6466
 ZZZY=             -0.0023 XXYY=           -251.5695 XXZZ=           -251.5650 YYZZ=            -20.9921
 XXYZ=             -0.0016 YYXZ=              0.6986 ZZXY=             -0.2054
 N-N= 1.809136804180D+02 E-N=-7.714451400366D+03  KE= 3.070240224028D+03
 Calling FoFJK, ICntrl=      2127 FMM=F ISym2X=0 I1Cent= 0 IOpClX= 0 NMat=1 NMatS=1 NMatT=0.
 -------------------------------------------------------------------
 Center     Atomic                   Forces (Hartrees/Bohr)
 Number     Number              X              Y              Z
 -------------------------------------------------------------------
      1        6          -0.003008385    0.000011240    0.000037958
      2        1           0.000346598   -0.000615746    0.000446511
      3        1           0.000347197    0.000699771    0.000308797
      4        1           0.000339386   -0.000080475   -0.000784739
      5       17           0.007106406   -0.000005628   -0.000012393
      6       35          -0.005131202   -0.000009162    0.000003865
 -------------------------------------------------------------------
 Cartesian Forces:  Max     0.007106406 RMS     0.002211387

 GradGradGradGradGradGradGradGradGradGradGradGradGradGradGradGradGradGrad
 Berny optimization.
 Search for a local minimum.
 Step number   1 out of a maximum of    2
 All quantities printed in internal units (Hartrees-Bohrs-Radians)
 Second derivative matrix not updated -- first step.
 The second derivative matrix:
                          X1        Y1        Z1        X2        Y2
           X1           0.43319
           Y1          -0.00012   0.65343
           Z1          -0.00022  -0.00000   0.65350
           X2          -0.09662   0.07571  -0.05430   0.08083
           Y2           0.06535  -0.24872   0.11744  -0.06925   0.24240
           Z2          -0.04687   0.11745  -0.16935   0.04967  -0.12963
           X3          -0.09651  -0.08474  -0.03836   0.00787   0.01053
           Y3          -0.07314  -0.29089  -0.09321  -0.00824  -0.01184
           Z3          -0.03311  -0.09321  -0.12727   0.01241   0.01840
           X4          -0.09680   0.00920   0.09297   0.00791  -0.00663
           Y4           0.00794  -0.08746  -0.02424  -0.01445   0.01408
           Z4           0.08029  -0.02424  -0.33052   0.00385  -0.00342
           X5           0.00000   0.00000   0.00000   0.00000   0.00000
           Y5           0.00000   0.00000   0.00000   0.00000   0.00000
           Z5           0.00000   0.00000   0.00000   0.00000   0.00000
           X6          -0.14327  -0.00003  -0.00009   0.00000   0.00000
           Y6          -0.00003  -0.02636   0.00000   0.01622   0.00407
           Z6          -0.00009   0.00000  -0.02636  -0.01164  -0.00279
                          Z2        X3        Y3        Z3        X4
           Z2           0.15478
           X3           0.01057   0.08073
           Y3          -0.01220   0.07749   0.28893
           Z3           0.01918   0.03509   0.10287   0.10833
           X4          -0.01337   0.00790   0.00389  -0.01439   0.08101
           Y4           0.02715   0.01492   0.00874  -0.03026  -0.00841
           Z4          -0.00678   0.00095   0.00033  -0.00142  -0.08508
           X5           0.00000   0.00000   0.00000   0.00000   0.00000
           Y5           0.00000   0.00000   0.00000   0.00000   0.00000
           Z5           0.00000   0.00000   0.00000   0.00000   0.00000
           X6          -0.00000   0.00001  -0.00000  -0.00000  -0.00002
           Y6          -0.00278  -0.01819   0.00506   0.00220   0.00196
           Z6           0.00217  -0.00823   0.00221   0.00117   0.01987
                          Y4        Z4        X5        Y5        Z5
           Y4           0.06441
           Z4           0.02676   0.33269
           X5           0.00000   0.00000   1.00000
           Y5           0.00000   0.00000   0.00000   1.00000
           Z5           0.00000   0.00000   0.00000   0.00000   1.00000
           X6          -0.00000  -0.00000   0.00000   0.00000   0.00000
           Y6           0.00024   0.00058   0.00000   0.00000   0.00000
           Z6           0.00058   0.00603   0.00000   0.00000   0.00000
                          X6        Y6        Z6
           X6           0.14327
           Y6           0.00003   0.01699
           Z6           0.00009  -0.00000   0.01699
 ITU=  0
     Eigenvalues ---    0.05181   0.05182   0.06503   0.08236   0.08237
     Eigenvalues ---    0.13975   0.13975   0.26298   0.62646   0.73862
     Eigenvalues ---    0.95605   0.95617
 Angle between quadratic step and forces=  47.37 degrees.
 Linear search not attempted -- first point.
 B after Tr=    -0.004197   -0.000031   -0.000019
         Rot=    1.000000    0.000000    0.000005   -0.000002 Ang=   0.00 deg.
 Variable       Old X    -DE/DX   Delta X   Delta X   Delta X     New X
                                 (Linear)    (Quad)   (Total)
    X1        0.82562  -0.00301   0.00000  -0.00099  -0.00518   0.82044
    Y1        0.00094   0.00001   0.00000   0.00007   0.00004   0.00098
    Z1        0.00255   0.00004   0.00000   0.00008   0.00007   0.00262
    X2        1.41832   0.00035   0.00000   0.00924   0.00503   1.42335
    Y2       -1.58395  -0.00062   0.00000   0.00017   0.00014  -1.58381
    Z2        1.13983   0.00045   0.00000  -0.00009  -0.00009   1.13973
    X3        1.41716   0.00035   0.00000   0.00927   0.00506   1.42222
    Y3        1.77831   0.00070   0.00000  -0.00007  -0.00010   1.77821
    Z3        0.80735   0.00031   0.00000  -0.00006  -0.00006   0.80729
    X4        1.42019   0.00034   0.00000   0.00896   0.00479   1.42497
    Y4       -0.19075  -0.00008   0.00000   0.00006   0.00003  -0.19072
    Z4       -1.93801  -0.00078   0.00000   0.00012   0.00011  -1.93790
    X5        6.23551   0.00711   0.00000   0.00968   0.00549   6.24100
    Y5       -0.00023  -0.00001   0.00000  -0.00003  -0.00004  -0.00027
    Z5       -0.00070  -0.00001   0.00000   0.00000   0.00005  -0.00065
    X6       -2.94285  -0.00513   0.00000  -0.01098  -0.01518  -2.95803
    Y6       -0.00009  -0.00001   0.00000  -0.00003  -0.00007  -0.00017
    Z6       -0.00021   0.00000   0.00000  -0.00003  -0.00008  -0.00029
         Item               Value     Threshold  Converged?
 Maximum Force            0.007106     0.000450     NO 
 RMS     Force            0.002211     0.000300     NO 
 Maximum Displacement     0.015181     0.001800     NO 
 RMS     Displacement     0.004481     0.001200     NO 
 Predicted change in Energy=-1.004913D-04
 GradGradGradGradGradGradGradGradGradGradGradGradGradGradGradGradGradGrad

 1\1\GINC-FS\Force\RM062X\6-311G(d,p)\C1H3Br1Cl1(1-)\XINYAN\22-Jan-2019
 \0\\# M062X/6-311G** force nosymm int=ultrafine\\Title\\-1,1\C,0.4369,
 0.0005,0.00135\H,0.75054,-0.83819,0.60317\H,0.74993,0.94104,0.42723\H,
 0.75153,-0.10094,-1.02555\Cl,3.29969,-0.00012,-0.00037\Br,-1.55729,-0.
 00005,-0.00011\\Version=ES64L-G16RevA.03\HF=-3074.3505634\RMSD=4.427e-
 09\RMSF=2.211e-03\Dipole=-4.1833997,0.0005137,0.0013535\Quadrupole=-26
 .2981817,13.1489322,13.1492495,0.0013146,0.0048354,-0.0001384\PG=C01 [
 X(C1H3Br1Cl1)]\\@


 Democracy is the recurrent suspicion that more than half of the people
 are right more than half of the time.
 -- E. B. White
 Job cpu time:       0 days  0 hours  0 minutes 42.7 seconds.
 Elapsed time:       0 days  0 hours  0 minutes  9.2 seconds.
 File lengths (MBytes):  RWF=     10 Int=      0 D2E=      0 Chk=      2 Scr=      1
 Normal termination of Gaussian 16 at Tue Jan 22 16:51:41 2019.
