 Entering Gaussian System, Link 0=g16
 Input=CH3BrCl-4.gjf
 Output=CH3BrCl-4.log
 Initial command:
 /home/xinyan/g16/l1.exe "/scratch/tmp/Gau-11992.inp" -scrdir="/scratch/tmp/"
 Entering Link 1 = /home/xinyan/g16/l1.exe PID=     11993.
  
 Copyright (c) 1988,1990,1992,1993,1995,1998,2003,2009,2016,
            Gaussian, Inc.  All Rights Reserved.
  
 This is part of the Gaussian(R) 16 program.  It is based on
 the Gaussian(R) 09 system (copyright 2009, Gaussian, Inc.),
 the Gaussian(R) 03 system (copyright 2003, Gaussian, Inc.),
 the Gaussian(R) 98 system (copyright 1998, Gaussian, Inc.),
 the Gaussian(R) 94 system (copyright 1995, Gaussian, Inc.),
 the Gaussian 92(TM) system (copyright 1992, Gaussian, Inc.),
 the Gaussian 90(TM) system (copyright 1990, Gaussian, Inc.),
 the Gaussian 88(TM) system (copyright 1988, Gaussian, Inc.),
 the Gaussian 86(TM) system (copyright 1986, Carnegie Mellon
 University), and the Gaussian 82(TM) system (copyright 1983,
 Carnegie Mellon University). Gaussian is a federally registered
 trademark of Gaussian, Inc.
  
 This software contains proprietary and confidential information,
 including trade secrets, belonging to Gaussian, Inc.
  
 This software is provided under written license and may be
 used, copied, transmitted, or stored only in accord with that
 written license.
  
 The following legend is applicable only to US Government
 contracts under FAR:
  
                    RESTRICTED RIGHTS LEGEND
  
 Use, reproduction and disclosure by the US Government is
 subject to restrictions as set forth in subparagraphs (a)
 and (c) of the Commercial Computer Software - Restricted
 Rights clause in FAR 52.227-19.
  
 Gaussian, Inc.
 340 Quinnipiac St., Bldg. 40, Wallingford CT 06492
  
  
 ---------------------------------------------------------------
 Warning -- This program may not be used in any manner that
 competes with the business of Gaussian, Inc. or will provide
 assistance to any competitor of Gaussian, Inc.  The licensee
 of this program is prohibited from giving any competitor of
 Gaussian, Inc. access to this program.  By using this program,
 the user acknowledges that Gaussian, Inc. is engaged in the
 business of creating and licensing software in the field of
 computational chemistry and represents and warrants to the
 licensee that it is not a competitor of Gaussian, Inc. and that
 it will not use this program in any manner prohibited above.
 ---------------------------------------------------------------
  

 Cite this work as:
 Gaussian 16, Revision A.03,
 M. J. Frisch, G. W. Trucks, H. B. Schlegel, G. E. Scuseria, 
 M. A. Robb, J. R. Cheeseman, G. Scalmani, V. Barone, 
 G. A. Petersson, H. Nakatsuji, X. Li, M. Caricato, A. V. Marenich, 
 J. Bloino, B. G. Janesko, R. Gomperts, B. Mennucci, H. P. Hratchian, 
 J. V. Ortiz, A. F. Izmaylov, J. L. Sonnenberg, D. Williams-Young, 
 F. Ding, F. Lipparini, F. Egidi, J. Goings, B. Peng, A. Petrone, 
 T. Henderson, D. Ranasinghe, V. G. Zakrzewski, J. Gao, N. Rega, 
 G. Zheng, W. Liang, M. Hada, M. Ehara, K. Toyota, R. Fukuda, 
 J. Hasegawa, M. Ishida, T. Nakajima, Y. Honda, O. Kitao, H. Nakai, 
 T. Vreven, K. Throssell, J. A. Montgomery, Jr., J. E. Peralta, 
 F. Ogliaro, M. J. Bearpark, J. J. Heyd, E. N. Brothers, K. N. Kudin, 
 V. N. Staroverov, T. A. Keith, R. Kobayashi, J. Normand, 
 K. Raghavachari, A. P. Rendell, J. C. Burant, S. S. Iyengar, 
 J. Tomasi, M. Cossi, J. M. Millam, M. Klene, C. Adamo, R. Cammi, 
 J. W. Ochterski, R. L. Martin, K. Morokuma, O. Farkas, 
 J. B. Foresman, and D. J. Fox, Gaussian, Inc., Wallingford CT, 2016.
 
 ******************************************
 Gaussian 16:  ES64L-G16RevA.03 25-Dec-2016
                22-Jan-2019 
 ******************************************
 %nproc=5
 Will use up to    5 processors via shared memory.
 -------------------------------------------
 # M062X/6-311G** force nosymm int=ultrafine
 -------------------------------------------
 1/10=7,30=1,38=1/1,3;
 2/12=2,15=1,17=6,18=5,40=1/2;
 3/5=4,6=6,7=101,11=2,25=1,30=1,71=1,74=-55,75=-5/1,2,3;
 4//1;
 5/5=2,38=5/2;
 6/7=2,8=2,9=2,10=2,28=1/1;
 7/29=1,30=1/1,2,3,16;
 1/10=7,30=1/3;
 99//99;
 -----
 Title
 -----
 Symbolic Z-matrix:
 Charge = -1 Multiplicity = 1
 C                     0.77401   0.00021   0.00128 
 H                     0.86142  -0.87025   0.62432 
 H                     0.8613    0.97499   0.4437 
 H                     0.86159  -0.10404  -1.06401 
 Cl                    3.21517  -0.00005  -0.00029 
 Br                   -1.57534  -0.00002  -0.00012 
 

 GradGradGradGradGradGradGradGradGradGradGradGradGradGradGradGradGradGrad
 Berny optimization.
 Initialization pass.
 Trust Radius=3.00D-01 FncErr=1.00D-07 GrdErr=1.00D-07 EigMax=2.50D+02 EigMin=1.00D-04
 Number of steps in this run=      2 maximum allowed number of steps=      2.
 GradGradGradGradGradGradGradGradGradGradGradGradGradGradGradGradGradGrad

                          Input orientation:                          
 ---------------------------------------------------------------------
 Center     Atomic      Atomic             Coordinates (Angstroms)
 Number     Number       Type             X           Y           Z
 ---------------------------------------------------------------------
      1          6           0        0.774010    0.000210    0.001280
      2          1           0        0.861420   -0.870250    0.624320
      3          1           0        0.861300    0.974990    0.443700
      4          1           0        0.861590   -0.104040   -1.064010
      5         17           0        3.215170   -0.000050   -0.000290
      6         35           0       -1.575340   -0.000020   -0.000120
 ---------------------------------------------------------------------
                    Distance matrix (angstroms):
                    1          2          3          4          5
     1  C    0.000000
     2  H    1.074020   0.000000
     3  H    1.074035   1.854059   0.000000
     4  H    1.073956   1.854059   1.854048   0.000000
     5  Cl   2.441161   2.586025   2.586220   2.584889   0.000000
     6  Br   2.349350   2.661771   2.661735   2.661073   4.790510
                    6
     6  Br   0.000000
 Symmetry turned off by external request.
 This structure is nearly, but not quite of a higher symmetry.
 Consider Symm=Loose if the higher symmetry is desired.
 Stoichiometry    CH3BrCl(1-)
 Framework group  C1[X(CH3BrCl)]
 Deg. of freedom    12
 Full point group                 C1      NOp   1
 Rotational constants (GHZ):         145.8756631           0.8889686           0.8889685
 Standard basis: 6-311G(d,p) (5D, 7F)
   106 basis functions,   195 primitive gaussians,   111 cartesian basis functions
    31 alpha electrons       31 beta electrons
       nuclear repulsion energy       176.1770254760 Hartrees.
 NAtoms=    6 NActive=    6 NUniq=    6 SFac= 1.00D+00 NAtFMM=   60 NAOKFM=F Big=F
 Integral buffers will be    131072 words long.
 Raffenetti 2 integral format.
 Two-electron integral symmetry is turned off.
 One-electron integrals computed using PRISM.
 NBasis=   106 RedAO= T EigKep=  1.09D-02  NBF=   106
 NBsUse=   106 1.00D-06 EigRej= -1.00D+00 NBFU=   106
 ExpMin= 1.03D-01 ExpMax= 4.40D+05 ExpMxC= 1.51D+04 IAcc=3 IRadAn=         5 AccDes= 0.00D+00
 Harris functional with IExCor= 1009 and IRadAn=       5 diagonalized for initial guess.
 HarFok:  IExCor= 1009 AccDes= 0.00D+00 IRadAn=         5 IDoV= 1 UseB2=F ITyADJ=14
 ICtDFT=  3500011 ScaDFX=  1.000000  1.000000  1.000000  1.000000
 FoFCou: FMM=F IPFlag=           0 FMFlag=      100000 FMFlg1=           0
         NFxFlg=           0 DoJE=T BraDBF=F KetDBF=T FulRan=T
         wScrn=  0.000000 ICntrl=       500 IOpCl=  0 I1Cent=   200000004 NGrid=           0
         NMat0=    1 NMatS0=      1 NMatT0=    0 NMatD0=    1 NMtDS0=    0 NMtDT0=    0
 Symmetry not used in FoFCou.
 Keep R1 ints in memory in canonical form, NReq=20756192.
 Requested convergence on RMS density matrix=1.00D-08 within 128 cycles.
 Requested convergence on MAX density matrix=1.00D-06.
 Requested convergence on             energy=1.00D-06.
 No special actions if energy rises.
 Integral accuracy reduced to 1.0D-05 until final iterations.
 Initial convergence to 1.0D-05 achieved.  Increase integral accuracy.
 SCF Done:  E(RM062X) =  -3074.33837092     A.U. after   14 cycles
            NFock= 14  Conv=0.55D-08     -V/T= 2.0014

 **********************************************************************

            Population analysis using the SCF density.

 **********************************************************************

 Alpha  occ. eigenvalues -- -485.12860-102.41414 -63.12075 -56.94743 -56.94606
 Alpha  occ. eigenvalues --  -56.94606 -10.45867  -9.55575  -8.80705  -7.27794
 Alpha  occ. eigenvalues --   -7.27595  -7.27595  -6.63178  -6.62642  -6.62642
 Alpha  occ. eigenvalues --   -2.66334  -2.66163  -2.66163  -2.65690  -2.65690
 Alpha  occ. eigenvalues --   -0.69298  -0.64665  -0.59974  -0.36919  -0.36918
 Alpha  occ. eigenvalues --   -0.23387  -0.16596  -0.16596  -0.14862  -0.14862
 Alpha  occ. eigenvalues --   -0.13197
 Alpha virt. eigenvalues --    0.14995   0.22633   0.28854   0.28860   0.46201
 Alpha virt. eigenvalues --    0.46834   0.46835   0.48812   0.50076   0.50078
 Alpha virt. eigenvalues --    0.54106   0.54110   0.64003   0.66591   0.76619
 Alpha virt. eigenvalues --    0.76625   0.79509   0.87263   0.87265   0.88329
 Alpha virt. eigenvalues --    0.88846   0.88850   0.98473   1.17458   1.18264
 Alpha virt. eigenvalues --    1.18266   1.18728   1.18728   1.28678   1.28685
 Alpha virt. eigenvalues --    1.37870   1.58633   1.62882   1.62891   1.66871
 Alpha virt. eigenvalues --    1.96830   1.96830   1.99595   2.11033   2.11036
 Alpha virt. eigenvalues --    2.17290   2.17291   2.27131   2.39760   2.39762
 Alpha virt. eigenvalues --    2.49717   2.60183   2.60186   2.65430   2.78772
 Alpha virt. eigenvalues --    2.78773   3.00174   3.15246   3.89719   3.89728
 Alpha virt. eigenvalues --    4.48269   4.48270   4.51974   4.51979   4.71479
 Alpha virt. eigenvalues --    6.72756   7.74553   7.74555   7.83628   9.87789
 Alpha virt. eigenvalues --   24.08549  25.75109  25.75113  26.03393  48.30710
 Alpha virt. eigenvalues --  215.92314 290.90018 290.90018 290.997141020.79679
          Condensed to atoms (all electrons):
               1          2          3          4          5          6
     1  C    4.977356   0.414743   0.414731   0.414848   0.045898   0.083391
     2  H    0.414743   0.493075  -0.016049  -0.016011  -0.038765  -0.041908
     3  H    0.414731  -0.016049   0.493093  -0.016016  -0.038751  -0.041908
     4  H    0.414848  -0.016011  -0.016016   0.493019  -0.038888  -0.042010
     5  Cl   0.045898  -0.038765  -0.038751  -0.038888  17.779152   0.016578
     6  Br   0.083391  -0.041908  -0.041908  -0.042010   0.016578  35.564541
 Mulliken charges:
               1
     1  C   -0.350967
     2  H    0.204916
     3  H    0.204900
     4  H    0.205059
     5  Cl  -0.725223
     6  Br  -0.538685
 Sum of Mulliken charges =  -1.00000
 Mulliken charges with hydrogens summed into heavy atoms:
               1
     1  C    0.263908
     5  Cl  -0.725223
     6  Br  -0.538685
 Electronic spatial extent (au):  <R**2>=           1100.5865
 Charge=             -1.0000 electrons
 Dipole moment (field-independent basis, Debye):
    X=             -5.9409    Y=              0.0006    Z=              0.0031  Tot=              5.9409
 Quadrupole moment (field-independent basis, Debye-Ang):
   XX=            -88.4634   YY=            -43.0514   ZZ=            -43.0506
   XY=              0.0004   XZ=              0.0043   YZ=             -0.0002
 Traceless Quadrupole moment (field-independent basis, Debye-Ang):
   XX=            -30.2749   YY=             15.1371   ZZ=             15.1378
   XY=              0.0004   XZ=              0.0043   YZ=             -0.0002
 Octapole moment (field-independent basis, Debye-Ang**2):
  XXX=           -188.1099  YYY=              0.3329  ZZZ=             -1.1084  XYY=            -22.5999
  XXY=              0.0005  XXZ=              0.0023  XZZ=            -22.5998  YZZ=             -0.3331
  YYZ=              1.1042  XYZ=              0.0001
 Hexadecapole moment (field-independent basis, Debye-Ang**3):
 XXXX=          -1767.9499 YYYY=            -63.4635 ZZZZ=            -63.4660 XXXY=              0.0039
 XXXZ=              0.0305 YYYX=              0.2983 YYYZ=              0.0006 ZZZX=             -0.9695
 ZZZY=             -0.0021 XXYY=           -241.9906 XXZZ=           -241.9894 YYZZ=            -21.1514
 XXYZ=             -0.0012 YYXZ=              0.9873 ZZXY=             -0.2955
 N-N= 1.761770254760D+02 E-N=-7.706000338682D+03  KE= 3.070149661099D+03
 Calling FoFJK, ICntrl=      2127 FMM=F ISym2X=0 I1Cent= 0 IOpClX= 0 NMat=1 NMatS=1 NMatT=0.
 -------------------------------------------------------------------
 Center     Atomic                   Forces (Hartrees/Bohr)
 Number     Number              X              Y              Z
 -------------------------------------------------------------------
      1        6          -0.010503491    0.000010065   -0.000006256
      2        1          -0.000089928    0.000308655   -0.000217782
      3        1          -0.000092481   -0.000337528   -0.000159137
      4        1          -0.000091246    0.000036330    0.000368611
      5       17           0.005513527   -0.000009201    0.000009486
      6       35           0.005263619   -0.000008322    0.000005078
 -------------------------------------------------------------------
 Cartesian Forces:  Max     0.010503491 RMS     0.003062973

 GradGradGradGradGradGradGradGradGradGradGradGradGradGradGradGradGradGrad
 Berny optimization.
 Search for a local minimum.
 Step number   1 out of a maximum of    2
 All quantities printed in internal units (Hartrees-Bohrs-Radians)
 Second derivative matrix not updated -- first step.
 The second derivative matrix:
                          X1        Y1        Z1        X2        Y2
           X1           0.28005
           Y1          -0.00004   0.73360
           Z1          -0.00002  -0.00001   0.73368
           X2          -0.07122   0.01473  -0.01055   0.05159
           Y2           0.01965  -0.28038   0.11932  -0.02096   0.26729
           Z2          -0.01407   0.11932  -0.19908   0.01501  -0.13673
           X3          -0.07122  -0.01646  -0.00748   0.00981   0.00376
           Y3          -0.02198  -0.32272  -0.09488  -0.00293  -0.00960
           Z3          -0.00999  -0.09487  -0.15673   0.00453   0.02041
           X4          -0.07123   0.00177   0.01809   0.00982  -0.00246
           Y4           0.00236  -0.11608  -0.02444  -0.00524   0.02172
           Z4           0.02411  -0.02444  -0.36347   0.00132  -0.00233
           X5           0.00000   0.00000   0.00000   0.00000   0.00000
           Y5           0.00000   0.00000   0.00000   0.00000   0.00000
           Z5           0.00000   0.00000   0.00000   0.00000   0.00000
           X6          -0.06638  -0.00001  -0.00003   0.00000   0.00000
           Y6          -0.00001  -0.01442   0.00000   0.01440   0.00097
           Z6          -0.00003   0.00000  -0.01441  -0.01030  -0.00067
                          Z2        X3        Y3        Z3        X4
           Z2           0.17413
           X3           0.00387   0.05158
           Y3          -0.01300   0.02343   0.31580
           Z3           0.02787   0.01065   0.10872   0.12560
           X4          -0.00481   0.00982   0.00148  -0.00519   0.05160
           Y4           0.03107   0.00540   0.01530  -0.03478  -0.00252
           Z4          -0.00344   0.00028  -0.00138   0.00298  -0.02571
           X5           0.00000   0.00000   0.00000   0.00000   0.00000
           Y5           0.00000   0.00000   0.00000   0.00000   0.00000
           Z5           0.00000   0.00000   0.00000   0.00000   0.00000
           X6          -0.00000   0.00001  -0.00000  -0.00000  -0.00001
           Y6          -0.00066  -0.01612   0.00121   0.00052   0.00172
           Z6           0.00051  -0.00732   0.00053   0.00027   0.01762
                          Y4        Z4        X5        Y5        Z5
           Y4           0.07901
           Z4           0.02801   0.36249
           X5           0.00000   0.00000   1.00000
           Y5           0.00000   0.00000   0.00000   1.00000
           Z5           0.00000   0.00000   0.00000   0.00000   1.00000
           X6          -0.00000  -0.00000   0.00000   0.00000   0.00000
           Y6           0.00005   0.00014   0.00000   0.00000   0.00000
           Z6           0.00014   0.00144   0.00000   0.00000   0.00000
                          X6        Y6        Z6
           X6           0.06638
           Y6           0.00001   0.01219
           Z6           0.00003  -0.00000   0.01219
 ITU=  0
     Eigenvalues ---    0.03901   0.04615   0.04616   0.09511   0.09511
     Eigenvalues ---    0.16561   0.16563   0.31027   0.40468   0.72987
     Eigenvalues ---    1.04003   1.04018
 Angle between quadratic step and forces=  53.89 degrees.
 Linear search not attempted -- first point.
 B after Tr=     0.032064   -0.000024    0.000043
         Rot=    1.000000    0.000000   -0.000002    0.000000 Ang=   0.00 deg.
 Variable       Old X    -DE/DX   Delta X   Delta X   Delta X     New X
                                 (Linear)    (Quad)   (Total)
    X1        1.46267  -0.01050   0.00000  -0.06809  -0.03603   1.42664
    Y1        0.00040   0.00001   0.00000   0.00006   0.00003   0.00043
    Z1        0.00242  -0.00001   0.00000  -0.00007  -0.00003   0.00239
    X2        1.62785  -0.00009   0.00000  -0.06206  -0.02999   1.59786
    Y2       -1.64453   0.00031   0.00000   0.00121   0.00119  -1.64335
    Z2        1.17979  -0.00022   0.00000  -0.00090  -0.00087   1.17893
    X3        1.62762  -0.00009   0.00000  -0.06209  -0.03003   1.59760
    Y3        1.84246  -0.00034   0.00000  -0.00124  -0.00127   1.84120
    Z3        0.83847  -0.00016   0.00000  -0.00066  -0.00062   0.83785
    X4        1.62817  -0.00009   0.00000  -0.06209  -0.03003   1.59814
    Y4       -0.19661   0.00004   0.00000   0.00019   0.00016  -0.19644
    Z4       -2.01069   0.00037   0.00000   0.00134   0.00138  -2.00931
    X5        6.07579   0.00551   0.00000   0.00751   0.03958   6.11537
    Y5       -0.00009  -0.00001   0.00000  -0.00004  -0.00007  -0.00017
    Z5       -0.00055   0.00001   0.00000   0.00002   0.00004  -0.00051
    X6       -2.97696   0.00526   0.00000   0.05444   0.08650  -2.89046
    Y6       -0.00004  -0.00001   0.00000  -0.00002  -0.00004  -0.00008
    Z6       -0.00023   0.00001   0.00000   0.00005   0.00011  -0.00012
         Item               Value     Threshold  Converged?
 Maximum Force            0.010503     0.000450     NO 
 RMS     Force            0.003063     0.000300     NO 
 Maximum Displacement     0.086500     0.001800     NO 
 RMS     Displacement     0.026932     0.001200     NO 
 Predicted change in Energy=-2.240769D-04
 GradGradGradGradGradGradGradGradGradGradGradGradGradGradGradGradGradGrad

 1\1\GINC-FS\Force\RM062X\6-311G(d,p)\C1H3Br1Cl1(1-)\XINYAN\22-Jan-2019
 \0\\# M062X/6-311G** force nosymm int=ultrafine\\Title\\-1,1\C,0.77401
 ,0.00021,0.00128\H,0.86142,-0.87025,0.62432\H,0.8613,0.97499,0.4437\H,
 0.86159,-0.10404,-1.06401\Cl,3.21517,-0.00005,-0.00029\Br,-1.57534,-0.
 00002,-0.00012\\Version=ES64L-G16RevA.03\HF=-3074.3383709\RMSD=5.528e-
 09\RMSF=3.063e-03\Dipole=-2.1282337,0.0002582,0.0012811\Quadrupole=-22
 .5086771,11.2540651,11.254612,0.000317,0.0031873,-0.0001613\PG=C01 [X(
 C1H3Br1Cl1)]\\@


 THE CHYMISTS ARE A STRANGE CLASS OF MORTALS IMPELLED
 BY AN ALMOST INSANE IMPULSE TO SEEK THEIR PLEASURE
 AMONG SMOKE AND VAPOR, SOOT AND FLAME, POISONS AND
 POVERTY; YET AMONG ALL THESE EVILS I SEEM TO LIVE
 SO SWEETLY, THAT I MAY DIE IF I WOULD CHANGE PLACES
 WITH THE PERSIAN KING.
   --  JOHANN JOACHIM BECHER, 1635-1682
 ACTA LABORATORII CHYMICA MONACENSIS, 1669
 Job cpu time:       0 days  0 hours  1 minutes  1.0 seconds.
 Elapsed time:       0 days  0 hours  0 minutes 13.6 seconds.
 File lengths (MBytes):  RWF=     10 Int=      0 D2E=      0 Chk=      2 Scr=      1
 Normal termination of Gaussian 16 at Tue Jan 22 16:49:15 2019.
