 Entering Gaussian System, Link 0=g16
 Input=CH3BrCl-48.gjf
 Output=CH3BrCl-48.log
 Initial command:
 /home/xinyan/g16/l1.exe "/scratch/tmp/Gau-15092.inp" -scrdir="/scratch/tmp/"
 Entering Link 1 = /home/xinyan/g16/l1.exe PID=     15093.
  
 Copyright (c) 1988,1990,1992,1993,1995,1998,2003,2009,2016,
            Gaussian, Inc.  All Rights Reserved.
  
 This is part of the Gaussian(R) 16 program.  It is based on
 the Gaussian(R) 09 system (copyright 2009, Gaussian, Inc.),
 the Gaussian(R) 03 system (copyright 2003, Gaussian, Inc.),
 the Gaussian(R) 98 system (copyright 1998, Gaussian, Inc.),
 the Gaussian(R) 94 system (copyright 1995, Gaussian, Inc.),
 the Gaussian 92(TM) system (copyright 1992, Gaussian, Inc.),
 the Gaussian 90(TM) system (copyright 1990, Gaussian, Inc.),
 the Gaussian 88(TM) system (copyright 1988, Gaussian, Inc.),
 the Gaussian 86(TM) system (copyright 1986, Carnegie Mellon
 University), and the Gaussian 82(TM) system (copyright 1983,
 Carnegie Mellon University). Gaussian is a federally registered
 trademark of Gaussian, Inc.
  
 This software contains proprietary and confidential information,
 including trade secrets, belonging to Gaussian, Inc.
  
 This software is provided under written license and may be
 used, copied, transmitted, or stored only in accord with that
 written license.
  
 The following legend is applicable only to US Government
 contracts under FAR:
  
                    RESTRICTED RIGHTS LEGEND
  
 Use, reproduction and disclosure by the US Government is
 subject to restrictions as set forth in subparagraphs (a)
 and (c) of the Commercial Computer Software - Restricted
 Rights clause in FAR 52.227-19.
  
 Gaussian, Inc.
 340 Quinnipiac St., Bldg. 40, Wallingford CT 06492
  
  
 ---------------------------------------------------------------
 Warning -- This program may not be used in any manner that
 competes with the business of Gaussian, Inc. or will provide
 assistance to any competitor of Gaussian, Inc.  The licensee
 of this program is prohibited from giving any competitor of
 Gaussian, Inc. access to this program.  By using this program,
 the user acknowledges that Gaussian, Inc. is engaged in the
 business of creating and licensing software in the field of
 computational chemistry and represents and warrants to the
 licensee that it is not a competitor of Gaussian, Inc. and that
 it will not use this program in any manner prohibited above.
 ---------------------------------------------------------------
  

 Cite this work as:
 Gaussian 16, Revision A.03,
 M. J. Frisch, G. W. Trucks, H. B. Schlegel, G. E. Scuseria, 
 M. A. Robb, J. R. Cheeseman, G. Scalmani, V. Barone, 
 G. A. Petersson, H. Nakatsuji, X. Li, M. Caricato, A. V. Marenich, 
 J. Bloino, B. G. Janesko, R. Gomperts, B. Mennucci, H. P. Hratchian, 
 J. V. Ortiz, A. F. Izmaylov, J. L. Sonnenberg, D. Williams-Young, 
 F. Ding, F. Lipparini, F. Egidi, J. Goings, B. Peng, A. Petrone, 
 T. Henderson, D. Ranasinghe, V. G. Zakrzewski, J. Gao, N. Rega, 
 G. Zheng, W. Liang, M. Hada, M. Ehara, K. Toyota, R. Fukuda, 
 J. Hasegawa, M. Ishida, T. Nakajima, Y. Honda, O. Kitao, H. Nakai, 
 T. Vreven, K. Throssell, J. A. Montgomery, Jr., J. E. Peralta, 
 F. Ogliaro, M. J. Bearpark, J. J. Heyd, E. N. Brothers, K. N. Kudin, 
 V. N. Staroverov, T. A. Keith, R. Kobayashi, J. Normand, 
 K. Raghavachari, A. P. Rendell, J. C. Burant, S. S. Iyengar, 
 J. Tomasi, M. Cossi, J. M. Millam, M. Klene, C. Adamo, R. Cammi, 
 J. W. Ochterski, R. L. Martin, K. Morokuma, O. Farkas, 
 J. B. Foresman, and D. J. Fox, Gaussian, Inc., Wallingford CT, 2016.
 
 ******************************************
 Gaussian 16:  ES64L-G16RevA.03 25-Dec-2016
                22-Jan-2019 
 ******************************************
 %nproc=5
 Will use up to    5 processors via shared memory.
 -------------------------------------------
 # M062X/6-311G** force nosymm int=ultrafine
 -------------------------------------------
 1/10=7,30=1,38=1/1,3;
 2/12=2,15=1,17=6,18=5,40=1/2;
 3/5=4,6=6,7=101,11=2,25=1,30=1,71=1,74=-55,75=-5/1,2,3;
 4//1;
 5/5=2,38=5/2;
 6/7=2,8=2,9=2,10=2,28=1/1;
 7/29=1,30=1/1,2,3,16;
 1/10=7,30=1/3;
 99//99;
 -----
 Title
 -----
 Symbolic Z-matrix:
 Charge = -1 Multiplicity = 1
 C                     1.33098   0.00033   0.00139 
 H                     0.99624  -0.83701   0.60103 
 H                     0.99657   0.93807   0.42742 
 H                     0.99501  -0.09958  -1.02311 
 Cl                    3.15689  -0.00008  -0.00024 
 Br                   -1.63936  -0.00004  -0.00017 
 

 GradGradGradGradGradGradGradGradGradGradGradGradGradGradGradGradGradGrad
 Berny optimization.
 Initialization pass.
 Trust Radius=3.00D-01 FncErr=1.00D-07 GrdErr=1.00D-07 EigMax=2.50D+02 EigMin=1.00D-04
 Number of steps in this run=      2 maximum allowed number of steps=      2.
 GradGradGradGradGradGradGradGradGradGradGradGradGradGradGradGradGradGrad

                          Input orientation:                          
 ---------------------------------------------------------------------
 Center     Atomic      Atomic             Coordinates (Angstroms)
 Number     Number       Type             X           Y           Z
 ---------------------------------------------------------------------
      1          6           0        1.330980    0.000330    0.001390
      2          1           0        0.996240   -0.837010    0.601030
      3          1           0        0.996570    0.938070    0.427420
      4          1           0        0.995010   -0.099580   -1.023110
      5         17           0        3.156890   -0.000080   -0.000240
      6         35           0       -1.639360   -0.000040   -0.000170
 ---------------------------------------------------------------------
                    Distance matrix (angstroms):
                    1          2          3          4          5
     1  C    0.000000
     2  H    1.082939   0.000000
     3  H    1.082907   1.783550   0.000000
     4  H    1.082801   1.783714   1.783468   0.000000
     5  Cl   1.825911   2.393822   2.393742   2.393719   0.000000
     6  Br   2.970340   2.829902   2.830373   2.827759   4.796250
                    6
     6  Br   0.000000
 Symmetry turned off by external request.
 This structure is nearly, but not quite of a higher symmetry.
 Consider Symm=Loose if the higher symmetry is desired.
 Stoichiometry    CH3BrCl(1-)
 Framework group  C1[X(CH3BrCl)]
 Deg. of freedom    12
 Full point group                 C1      NOp   1
 Rotational constants (GHZ):         157.6315890           0.8617583           0.8617576
 Standard basis: 6-311G(d,p) (5D, 7F)
   106 basis functions,   195 primitive gaussians,   111 cartesian basis functions
    31 alpha electrons       31 beta electrons
       nuclear repulsion energy       173.2195583688 Hartrees.
 NAtoms=    6 NActive=    6 NUniq=    6 SFac= 1.00D+00 NAtFMM=   60 NAOKFM=F Big=F
 Integral buffers will be    131072 words long.
 Raffenetti 2 integral format.
 Two-electron integral symmetry is turned off.
 One-electron integrals computed using PRISM.
 NBasis=   106 RedAO= T EigKep=  1.08D-02  NBF=   106
 NBsUse=   106 1.00D-06 EigRej= -1.00D+00 NBFU=   106
 ExpMin= 1.03D-01 ExpMax= 4.40D+05 ExpMxC= 1.51D+04 IAcc=3 IRadAn=         5 AccDes= 0.00D+00
 Harris functional with IExCor= 1009 and IRadAn=       5 diagonalized for initial guess.
 HarFok:  IExCor= 1009 AccDes= 0.00D+00 IRadAn=         5 IDoV= 1 UseB2=F ITyADJ=14
 ICtDFT=  3500011 ScaDFX=  1.000000  1.000000  1.000000  1.000000
 FoFCou: FMM=F IPFlag=           0 FMFlag=      100000 FMFlg1=           0
         NFxFlg=           0 DoJE=T BraDBF=F KetDBF=T FulRan=T
         wScrn=  0.000000 ICntrl=       500 IOpCl=  0 I1Cent=   200000004 NGrid=           0
         NMat0=    1 NMatS0=      1 NMatT0=    0 NMatD0=    1 NMtDS0=    0 NMtDT0=    0
 Symmetry not used in FoFCou.
 Keep R1 ints in memory in canonical form, NReq=20756204.
 Requested convergence on RMS density matrix=1.00D-08 within 128 cycles.
 Requested convergence on MAX density matrix=1.00D-06.
 Requested convergence on             energy=1.00D-06.
 No special actions if energy rises.
 Integral accuracy reduced to 1.0D-05 until final iterations.
 Initial convergence to 1.0D-05 achieved.  Increase integral accuracy.
 SCF Done:  E(RM062X) =  -3074.35638839     A.U. after   13 cycles
            NFock= 13  Conv=0.49D-08     -V/T= 2.0013

 **********************************************************************

            Population analysis using the SCF density.

 **********************************************************************

 Alpha  occ. eigenvalues -- -485.03939-102.52543 -63.03166 -56.85749 -56.85747
 Alpha  occ. eigenvalues --  -56.85747 -10.44066  -9.66775  -8.71765  -7.39223
 Alpha  occ. eigenvalues --   -7.38661  -7.38661  -6.53917  -6.53889  -6.53889
 Alpha  occ. eigenvalues --   -2.57104  -2.57095  -2.57094  -2.57074  -2.57074
 Alpha  occ. eigenvalues --   -0.80613  -0.62187  -0.55277  -0.36681  -0.36677
 Alpha  occ. eigenvalues --   -0.32640  -0.22946  -0.22945  -0.09219  -0.09218
 Alpha  occ. eigenvalues --   -0.09133
 Alpha virt. eigenvalues --    0.20990   0.23730   0.28695   0.28703   0.43515
 Alpha virt. eigenvalues --    0.46598   0.46599   0.47303   0.47305   0.53309
 Alpha virt. eigenvalues --    0.56588   0.56595   0.61057   0.72156   0.74100
 Alpha virt. eigenvalues --    0.76775   0.76784   0.87258   0.94997   0.94999
 Alpha virt. eigenvalues --    0.95788   0.95792   1.00712   1.02123   1.02127
 Alpha virt. eigenvalues --    1.08534   1.08536   1.17088   1.25781   1.33052
 Alpha virt. eigenvalues --    1.33056   1.63316   1.66297   1.66302   1.87267
 Alpha virt. eigenvalues --    1.87270   1.89516   2.07587   2.17411   2.17420
 Alpha virt. eigenvalues --    2.27039   2.27044   2.27696   2.39402   2.39410
 Alpha virt. eigenvalues --    2.54327   2.54900   2.59646   2.59652   2.69599
 Alpha virt. eigenvalues --    2.69613   3.09919   3.32225   3.91037   3.91070
 Alpha virt. eigenvalues --    4.56656   4.56659   4.57577   4.57582   4.70172
 Alpha virt. eigenvalues --    6.79262   7.82089   7.82092   7.87756   9.86540
 Alpha virt. eigenvalues --   24.08072  25.69890  25.69894  26.24213  48.37975
 Alpha virt. eigenvalues --  215.91780 290.98662 290.98665 291.042591020.86492
          Condensed to atoms (all electrons):
               1          2          3          4          5          6
     1  C    5.076590   0.407571   0.407563   0.407627   0.132064  -0.035710
     2  H    0.407571   0.506922  -0.020853  -0.020805  -0.059996  -0.001570
     3  H    0.407563  -0.020853   0.506985  -0.020833  -0.059995  -0.001563
     4  H    0.407627  -0.020805  -0.020833   0.506722  -0.060020  -0.001603
     5  Cl   0.132064  -0.059996  -0.059995  -0.060020  17.293141   0.010169
     6  Br  -0.035710  -0.001570  -0.001563  -0.001603   0.010169  35.945546
 Mulliken charges:
               1
     1  C   -0.395705
     2  H    0.188732
     3  H    0.188695
     4  H    0.188911
     5  Cl  -0.255364
     6  Br  -0.915269
 Sum of Mulliken charges =  -1.00000
 Mulliken charges with hydrogens summed into heavy atoms:
               1
     1  C    0.170633
     5  Cl  -0.255364
     6  Br  -0.915269
 Electronic spatial extent (au):  <R**2>=           1118.3225
 Charge=             -1.0000 electrons
 Dipole moment (field-independent basis, Debye):
    X=              3.4049    Y=              0.0010    Z=              0.0029  Tot=              3.4049
 Quadrupole moment (field-independent basis, Debye-Ang):
   XX=            -71.6247   YY=            -43.1833   ZZ=            -43.1816
   XY=              0.0004   XZ=              0.0014   YZ=             -0.0005
 Traceless Quadrupole moment (field-independent basis, Debye-Ang):
   XX=            -18.9615   YY=              9.4799   ZZ=              9.4816
   XY=              0.0004   XZ=              0.0014   YZ=             -0.0005
 Octapole moment (field-independent basis, Debye-Ang**2):
  XXX=            -77.5335  YYY=              0.2597  ZZZ=             -0.8733  XYY=            -16.1797
  XXY=              0.0010  XXZ=             -0.0018  XZZ=            -16.1822  YZZ=             -0.2607
  YYZ=              0.8632  XYZ=             -0.0001
 Hexadecapole moment (field-independent basis, Debye-Ang**3):
 XXXX=          -1479.3043 YYYY=            -63.7675 ZZZZ=            -63.7686 XXXY=             -0.0113
 XXXZ=             -0.0598 YYYX=              0.2746 YYYZ=              0.0014 ZZZX=             -0.9511
 ZZZY=             -0.0023 XXYY=           -233.8513 XXZZ=           -233.8513 YYZZ=            -21.2523
 XXYZ=             -0.0012 YYXZ=              0.9167 ZZXY=             -0.2797
 N-N= 1.732195583688D+02 E-N=-7.701410728379D+03  KE= 3.070260927315D+03
 Calling FoFJK, ICntrl=      2127 FMM=F ISym2X=0 I1Cent= 0 IOpClX= 0 NMat=1 NMatS=1 NMatT=0.
 -------------------------------------------------------------------
 Center     Atomic                   Forces (Hartrees/Bohr)
 Number     Number              X              Y              Z
 -------------------------------------------------------------------
      1        6           0.000503825    0.000007006    0.000080986
      2        1           0.000768982    0.000961119   -0.000693057
      3        1           0.000765094   -0.001054578   -0.000486136
      4        1           0.000741590    0.000109229    0.001118778
      5       17           0.007634903   -0.000007233   -0.000002582
      6       35          -0.010414394   -0.000015544   -0.000017989
 -------------------------------------------------------------------
 Cartesian Forces:  Max     0.010414394 RMS     0.003097985

 GradGradGradGradGradGradGradGradGradGradGradGradGradGradGradGradGradGrad
 Berny optimization.
 Search for a local minimum.
 Step number   1 out of a maximum of    2
 All quantities printed in internal units (Hartrees-Bohrs-Radians)
 Second derivative matrix not updated -- first step.
 The second derivative matrix:
                          X1        Y1        Z1        X2        Y2
           X1           0.54505
           Y1           0.00003   0.64124
           Z1           0.00013  -0.00003   0.64147
           X2          -0.10103  -0.07765   0.05558   0.08458
           Y2          -0.06750  -0.24266   0.11549   0.07184   0.23687
           Z2           0.04831   0.11551  -0.16412  -0.05143  -0.12683
           X3          -0.10097   0.08688   0.03946   0.00820  -0.01092
           Y3           0.07552  -0.28371  -0.09192   0.00864  -0.01207
           Z3           0.03430  -0.09192  -0.12316  -0.01257   0.01800
           X4          -0.10128  -0.00931  -0.09535   0.00824   0.00658
           Y4          -0.00810  -0.08371  -0.02355   0.01474   0.01313
           Z4          -0.08293  -0.02356  -0.32301  -0.00414  -0.00344
           X5          -0.24177   0.00005   0.00019   0.00001  -0.00000
           Y5           0.00004  -0.03116   0.00000  -0.01757   0.00473
           Z5           0.00019   0.00000  -0.03117   0.01257  -0.00322
           X6           0.00000   0.00000   0.00000   0.00000   0.00000
           Y6           0.00000   0.00000   0.00000   0.00000   0.00000
           Z6           0.00000   0.00000   0.00000   0.00000   0.00000
                          Z2        X3        Y3        Z3        X4
           Z2           0.15059
           X3          -0.01067   0.08453
           Y3          -0.01204  -0.08038   0.28193
           Z3           0.01812  -0.03652   0.10093   0.10563
           X4           0.01379   0.00823  -0.00378   0.01479   0.08483
           Y4           0.02657  -0.01526   0.00799  -0.02956   0.00862
           Z4          -0.00711  -0.00121   0.00046  -0.00197   0.08828
           X5           0.00000   0.00001   0.00000   0.00000  -0.00002
           Y5          -0.00320   0.01967   0.00586   0.00254  -0.00210
           Z5           0.00252   0.00893   0.00256   0.00138  -0.02150
           X6           0.00000   0.00000   0.00000   0.00000   0.00000
           Y6           0.00000   0.00000   0.00000   0.00000   0.00000
           Z6           0.00000   0.00000   0.00000   0.00000   0.00000
                          Y4        Z4        X5        Y5        Z5
           Y4           0.06230
           Z4           0.02587   0.32511
           X5           0.00000   0.00001   0.24177
           Y5           0.00029   0.00066  -0.00005   0.02028
           Z5           0.00066   0.00698  -0.00020  -0.00000   0.02029
           X6           0.00000   0.00000   0.00000   0.00000   0.00000
           Y6           0.00000   0.00000   0.00000   0.00000   0.00000
           Z6           0.00000   0.00000   0.00000   0.00000   0.00000
                          X6        Y6        Z6
           X6           1.00000
           Y6           0.00000   1.00000
           Z6           0.00000   0.00000   1.00000
 ITU=  0
     Eigenvalues ---    0.02868   0.02868   0.07043   0.07044   0.09109
     Eigenvalues ---    0.13398   0.13400   0.28875   0.47540   0.76681
     Eigenvalues ---    0.92730   0.92762
 Angle between quadratic step and forces=  22.42 degrees.
 Linear search not attempted -- first point.
 B after Tr=    -0.001514   -0.000105   -0.000081
         Rot=    1.000000    0.000000    0.000005   -0.000004 Ang=   0.00 deg.
 Variable       Old X    -DE/DX   Delta X   Delta X   Delta X     New X
                                 (Linear)    (Quad)   (Total)
    X1        2.51519   0.00050   0.00000   0.00723   0.00572   2.52091
    Y1        0.00062   0.00001   0.00000   0.00017   0.00008   0.00071
    Z1        0.00263   0.00008   0.00000   0.00017   0.00012   0.00274
    X2        1.88262   0.00077   0.00000  -0.00050  -0.00201   1.88061
    Y2       -1.58172   0.00096   0.00000   0.00465   0.00456  -1.57716
    Z2        1.13578  -0.00069   0.00000  -0.00309  -0.00315   1.13263
    X3        1.88324   0.00077   0.00000  -0.00034  -0.00187   1.88137
    Y3        1.77270  -0.00105   0.00000  -0.00476  -0.00485   1.76785
    Z3        0.80771  -0.00049   0.00000  -0.00212  -0.00218   0.80553
    X4        1.88030   0.00074   0.00000  -0.00072  -0.00221   1.87808
    Y4       -0.18818   0.00011   0.00000   0.00070   0.00061  -0.18757
    Z4       -1.93340   0.00112   0.00000   0.00557   0.00551  -1.92789
    X5        5.96566   0.00763   0.00000   0.02026   0.01874   5.98440
    Y5       -0.00015  -0.00001   0.00000  -0.00013  -0.00019  -0.00034
    Z5       -0.00045  -0.00000   0.00000  -0.00010  -0.00011  -0.00057
    X6       -3.09794  -0.01041   0.00000  -0.01685  -0.01837  -3.11631
    Y6       -0.00008  -0.00002   0.00000  -0.00008  -0.00020  -0.00028
    Z6       -0.00032  -0.00002   0.00000  -0.00007  -0.00018  -0.00050
         Item               Value     Threshold  Converged?
 Maximum Force            0.010414     0.000450     NO 
 RMS     Force            0.003098     0.000300     NO 
 Maximum Displacement     0.018744     0.001800     NO 
 RMS     Displacement     0.006764     0.001200     NO 
 Predicted change in Energy=-1.491099D-04
 GradGradGradGradGradGradGradGradGradGradGradGradGradGradGradGradGradGrad

 1\1\GINC-FS\Force\RM062X\6-311G(d,p)\C1H3Br1Cl1(1-)\XINYAN\22-Jan-2019
 \0\\# M062X/6-311G** force nosymm int=ultrafine\\Title\\-1,1\C,1.33098
 ,0.00033,0.00139\H,0.99624,-0.83701,0.60103\H,0.99657,0.93807,0.42742\
 H,0.99501,-0.09958,-1.02311\Cl,3.15689,-0.00008,-0.00024\Br,-1.63936,-
 0.00004,-0.00017\\Version=ES64L-G16RevA.03\HF=-3074.3563884\RMSD=4.892
 e-09\RMSF=3.098e-03\Dipole=1.5645924,0.0004095,0.0012611\Quadrupole=-1
 4.0974007,7.0480854,7.0493153,0.0003215,0.0010601,-0.0004077\PG=C01 [X
 (C1H3Br1Cl1)]\\@


 IT IS NOT EASY TO DESCRIBE
     THE SEA WITH THE MOUTH

                   -- KOKYU
 Job cpu time:       0 days  0 hours  0 minutes 35.1 seconds.
 Elapsed time:       0 days  0 hours  0 minutes  7.6 seconds.
 File lengths (MBytes):  RWF=     10 Int=      0 D2E=      0 Chk=      2 Scr=      1
 Normal termination of Gaussian 16 at Tue Jan 22 16:56:00 2019.
