 Entering Gaussian System, Link 0=g16
 Input=CH3BrCl-60.gjf
 Output=CH3BrCl-60.log
 Initial command:
 /home/xinyan/g16/l1.exe "/scratch/tmp/Gau-15888.inp" -scrdir="/scratch/tmp/"
 Entering Link 1 = /home/xinyan/g16/l1.exe PID=     15889.
  
 Copyright (c) 1988,1990,1992,1993,1995,1998,2003,2009,2016,
            Gaussian, Inc.  All Rights Reserved.
  
 This is part of the Gaussian(R) 16 program.  It is based on
 the Gaussian(R) 09 system (copyright 2009, Gaussian, Inc.),
 the Gaussian(R) 03 system (copyright 2003, Gaussian, Inc.),
 the Gaussian(R) 98 system (copyright 1998, Gaussian, Inc.),
 the Gaussian(R) 94 system (copyright 1995, Gaussian, Inc.),
 the Gaussian 92(TM) system (copyright 1992, Gaussian, Inc.),
 the Gaussian 90(TM) system (copyright 1990, Gaussian, Inc.),
 the Gaussian 88(TM) system (copyright 1988, Gaussian, Inc.),
 the Gaussian 86(TM) system (copyright 1986, Carnegie Mellon
 University), and the Gaussian 82(TM) system (copyright 1983,
 Carnegie Mellon University). Gaussian is a federally registered
 trademark of Gaussian, Inc.
  
 This software contains proprietary and confidential information,
 including trade secrets, belonging to Gaussian, Inc.
  
 This software is provided under written license and may be
 used, copied, transmitted, or stored only in accord with that
 written license.
  
 The following legend is applicable only to US Government
 contracts under FAR:
  
                    RESTRICTED RIGHTS LEGEND
  
 Use, reproduction and disclosure by the US Government is
 subject to restrictions as set forth in subparagraphs (a)
 and (c) of the Commercial Computer Software - Restricted
 Rights clause in FAR 52.227-19.
  
 Gaussian, Inc.
 340 Quinnipiac St., Bldg. 40, Wallingford CT 06492
  
  
 ---------------------------------------------------------------
 Warning -- This program may not be used in any manner that
 competes with the business of Gaussian, Inc. or will provide
 assistance to any competitor of Gaussian, Inc.  The licensee
 of this program is prohibited from giving any competitor of
 Gaussian, Inc. access to this program.  By using this program,
 the user acknowledges that Gaussian, Inc. is engaged in the
 business of creating and licensing software in the field of
 computational chemistry and represents and warrants to the
 licensee that it is not a competitor of Gaussian, Inc. and that
 it will not use this program in any manner prohibited above.
 ---------------------------------------------------------------
  

 Cite this work as:
 Gaussian 16, Revision A.03,
 M. J. Frisch, G. W. Trucks, H. B. Schlegel, G. E. Scuseria, 
 M. A. Robb, J. R. Cheeseman, G. Scalmani, V. Barone, 
 G. A. Petersson, H. Nakatsuji, X. Li, M. Caricato, A. V. Marenich, 
 J. Bloino, B. G. Janesko, R. Gomperts, B. Mennucci, H. P. Hratchian, 
 J. V. Ortiz, A. F. Izmaylov, J. L. Sonnenberg, D. Williams-Young, 
 F. Ding, F. Lipparini, F. Egidi, J. Goings, B. Peng, A. Petrone, 
 T. Henderson, D. Ranasinghe, V. G. Zakrzewski, J. Gao, N. Rega, 
 G. Zheng, W. Liang, M. Hada, M. Ehara, K. Toyota, R. Fukuda, 
 J. Hasegawa, M. Ishida, T. Nakajima, Y. Honda, O. Kitao, H. Nakai, 
 T. Vreven, K. Throssell, J. A. Montgomery, Jr., J. E. Peralta, 
 F. Ogliaro, M. J. Bearpark, J. J. Heyd, E. N. Brothers, K. N. Kudin, 
 V. N. Staroverov, T. A. Keith, R. Kobayashi, J. Normand, 
 K. Raghavachari, A. P. Rendell, J. C. Burant, S. S. Iyengar, 
 J. Tomasi, M. Cossi, J. M. Millam, M. Klene, C. Adamo, R. Cammi, 
 J. W. Ochterski, R. L. Martin, K. Morokuma, O. Farkas, 
 J. B. Foresman, and D. J. Fox, Gaussian, Inc., Wallingford CT, 2016.
 
 ******************************************
 Gaussian 16:  ES64L-G16RevA.03 25-Dec-2016
                22-Jan-2019 
 ******************************************
 %nproc=5
 Will use up to    5 processors via shared memory.
 -------------------------------------------
 # M062X/6-311G** force nosymm int=ultrafine
 -------------------------------------------
 1/10=7,30=1,38=1/1,3;
 2/12=2,15=1,17=6,18=5,40=1/2;
 3/5=4,6=6,7=101,11=2,25=1,30=1,71=1,74=-55,75=-5/1,2,3;
 4//1;
 5/5=2,38=5/2;
 6/7=2,8=2,9=2,10=2,28=1/1;
 7/29=1,30=1/1,2,3,16;
 1/10=7,30=1/3;
 99//99;
 -----
 Title
 -----
 Symbolic Z-matrix:
 Charge = -1 Multiplicity = 1
 C                     1.45105   0.00367   0.00473 
 H                     1.11318  -0.8266    0.61001 
 H                     1.11645   0.94478   0.4241 
 H                     1.10978  -0.10259  -1.01638 
 Cl                    3.28234  -0.00042  -0.00043 
 Br                   -1.7177   -0.00057  -0.00076 
 

 GradGradGradGradGradGradGradGradGradGradGradGradGradGradGradGradGradGrad
 Berny optimization.
 Initialization pass.
 Trust Radius=3.00D-01 FncErr=1.00D-07 GrdErr=1.00D-07 EigMax=2.50D+02 EigMin=1.00D-04
 Number of steps in this run=      2 maximum allowed number of steps=      2.
 GradGradGradGradGradGradGradGradGradGradGradGradGradGradGradGradGradGrad

                          Input orientation:                          
 ---------------------------------------------------------------------
 Center     Atomic      Atomic             Coordinates (Angstroms)
 Number     Number       Type             X           Y           Z
 ---------------------------------------------------------------------
      1          6           0        1.451050    0.003670    0.004730
      2          1           0        1.113180   -0.826600    0.610010
      3          1           0        1.116450    0.944780    0.424100
      4          1           0        1.109780   -0.102590   -1.016380
      5         17           0        3.282340   -0.000420   -0.000430
      6         35           0       -1.717700   -0.000570   -0.000760
 ---------------------------------------------------------------------
                    Distance matrix (angstroms):
                    1          2          3          4          5
     1  C    0.000000
     2  H    1.081604   0.000000
     3  H    1.083290   1.781112   0.000000
     4  H    1.081860   1.780266   1.781014   0.000000
     5  Cl   1.831302   2.400097   2.400981   2.400544   0.000000
     6  Br   3.168758   3.011519   3.017714   3.006083   5.000040
                    6
     6  Br   0.000000
 Symmetry turned off by external request.
 Stoichiometry    CH3BrCl(1-)
 Framework group  C1[X(CH3BrCl)]
 Deg. of freedom    12
 Full point group                 C1      NOp   1
 Rotational constants (GHZ):         158.0953512           0.7894030           0.7894002
 Standard basis: 6-311G(d,p) (5D, 7F)
   106 basis functions,   195 primitive gaussians,   111 cartesian basis functions
    31 alpha electrons       31 beta electrons
       nuclear repulsion energy       166.8994754160 Hartrees.
 NAtoms=    6 NActive=    6 NUniq=    6 SFac= 1.00D+00 NAtFMM=   60 NAOKFM=F Big=F
 Integral buffers will be    131072 words long.
 Raffenetti 2 integral format.
 Two-electron integral symmetry is turned off.
 One-electron integrals computed using PRISM.
 NBasis=   106 RedAO= T EigKep=  1.11D-02  NBF=   106
 NBsUse=   106 1.00D-06 EigRej= -1.00D+00 NBFU=   106
 ExpMin= 1.03D-01 ExpMax= 4.40D+05 ExpMxC= 1.51D+04 IAcc=3 IRadAn=         5 AccDes= 0.00D+00
 Harris functional with IExCor= 1009 and IRadAn=       5 diagonalized for initial guess.
 HarFok:  IExCor= 1009 AccDes= 0.00D+00 IRadAn=         5 IDoV= 1 UseB2=F ITyADJ=14
 ICtDFT=  3500011 ScaDFX=  1.000000  1.000000  1.000000  1.000000
 FoFCou: FMM=F IPFlag=           0 FMFlag=      100000 FMFlg1=           0
         NFxFlg=           0 DoJE=T BraDBF=F KetDBF=T FulRan=T
         wScrn=  0.000000 ICntrl=       500 IOpCl=  0 I1Cent=   200000004 NGrid=           0
         NMat0=    1 NMatS0=      1 NMatT0=    0 NMatD0=    1 NMtDS0=    0 NMtDT0=    0
 Symmetry not used in FoFCou.
 Keep R1 ints in memory in canonical form, NReq=20756204.
 Requested convergence on RMS density matrix=1.00D-08 within 128 cycles.
 Requested convergence on MAX density matrix=1.00D-06.
 Requested convergence on             energy=1.00D-06.
 No special actions if energy rises.
 Integral accuracy reduced to 1.0D-05 until final iterations.
 Initial convergence to 1.0D-05 achieved.  Increase integral accuracy.
 SCF Done:  E(RM062X) =  -3074.35857838     A.U. after   13 cycles
            NFock= 13  Conv=0.45D-08     -V/T= 2.0014

 **********************************************************************

            Population analysis using the SCF density.

 **********************************************************************

 Alpha  occ. eigenvalues -- -485.03832-102.53342 -63.03042 -56.85630 -56.85624
 Alpha  occ. eigenvalues --  -56.85624 -10.44876  -9.67546  -8.71628  -7.40002
 Alpha  occ. eigenvalues --   -7.39427  -7.39427  -6.53782  -6.53750  -6.53750
 Alpha  occ. eigenvalues --   -2.56969  -2.56959  -2.56959  -2.56932  -2.56931
 Alpha  occ. eigenvalues --   -0.81199  -0.62773  -0.55127  -0.37318  -0.37289
 Alpha  occ. eigenvalues --   -0.33240  -0.23623  -0.23617  -0.09079  -0.09011
 Alpha  occ. eigenvalues --   -0.09010
 Alpha virt. eigenvalues --    0.19895   0.23428   0.28181   0.28220   0.42687
 Alpha virt. eigenvalues --    0.46043   0.46052   0.46733   0.46738   0.54339
 Alpha virt. eigenvalues --    0.56620   0.56637   0.58372   0.71208   0.74878
 Alpha virt. eigenvalues --    0.76160   0.76221   0.86041   0.95221   0.95224
 Alpha virt. eigenvalues --    0.96107   0.96135   0.99641   1.01184   1.01188
 Alpha virt. eigenvalues --    1.07863   1.07865   1.11167   1.24718   1.32048
 Alpha virt. eigenvalues --    1.32055   1.62823   1.65591   1.65603   1.86514
 Alpha virt. eigenvalues --    1.86525   1.87204   2.08615   2.17830   2.17843
 Alpha virt. eigenvalues --    2.24881   2.25961   2.25986   2.38779   2.38796
 Alpha virt. eigenvalues --    2.51204   2.53568   2.58990   2.59047   2.68898
 Alpha virt. eigenvalues --    2.69058   3.05620   3.31100   3.90468   3.90693
 Alpha virt. eigenvalues --    4.56785   4.56787   4.57451   4.57461   4.66246
 Alpha virt. eigenvalues --    6.78227   7.82064   7.82071   7.86311   9.85307
 Alpha virt. eigenvalues --   24.07491  25.68978  25.68989  26.22194  48.37033
 Alpha virt. eigenvalues --  215.90509 290.98580 290.98590 291.026871020.85230
          Condensed to atoms (all electrons):
               1          2          3          4          5          6
     1  C    5.060555   0.401925   0.401694   0.401930   0.147787  -0.020792
     2  H    0.401925   0.502414  -0.020639  -0.020535  -0.056852   0.004824
     3  H    0.401694  -0.020639   0.503359  -0.020629  -0.056849   0.004785
     4  H    0.401930  -0.020535  -0.020629   0.502012  -0.056832   0.004836
     5  Cl   0.147787  -0.056852  -0.056849  -0.056832  17.260825   0.005881
     6  Br  -0.020792   0.004824   0.004785   0.004836   0.005881  35.929769
 Mulliken charges:
               1
     1  C   -0.393099
     2  H    0.188864
     3  H    0.188280
     4  H    0.189217
     5  Cl  -0.243960
     6  Br  -0.929302
 Sum of Mulliken charges =  -1.00000
 Mulliken charges with hydrogens summed into heavy atoms:
               1
     1  C    0.173262
     5  Cl  -0.243960
     6  Br  -0.929302
 Electronic spatial extent (au):  <R**2>=           1210.8953
 Charge=             -1.0000 electrons
 Dipole moment (field-independent basis, Debye):
    X=              3.9089    Y=              0.0078    Z=              0.0096  Tot=              3.9089
 Quadrupole moment (field-independent basis, Debye-Ang):
   XX=            -72.8006   YY=            -43.1943   ZZ=            -43.1926
   XY=              0.0027   XZ=              0.0030   YZ=             -0.0009
 Traceless Quadrupole moment (field-independent basis, Debye-Ang):
   XX=            -19.7381   YY=              9.8682   ZZ=              9.8699
   XY=              0.0027   XZ=              0.0030   YZ=             -0.0009
 Octapole moment (field-independent basis, Debye-Ang**2):
  XXX=            -79.5471  YYY=              0.2563  ZZZ=             -0.8939  XYY=            -16.7952
  XXY=             -0.0078  XXZ=             -0.0079  XZZ=            -16.8043  YZZ=             -0.2894
  YYZ=              0.8547  XYZ=              0.0013
 Hexadecapole moment (field-independent basis, Debye-Ang**3):
 XXXX=          -1610.3139 YYYY=            -63.7321 ZZZZ=            -63.7427 XXXY=             -0.2243
 XXXZ=             -0.3004 YYYX=              0.2093 YYYZ=              0.0106 ZZZX=             -1.1930
 ZZZY=             -0.0145 XXYY=           -252.5920 XXZZ=           -252.6006 YYZZ=            -21.2363
 XXYZ=             -0.0014 YYXZ=              0.9654 ZZXY=             -0.3735
 N-N= 1.668994754160D+02 E-N=-7.688594989159D+03  KE= 3.070206162583D+03
 Calling FoFJK, ICntrl=      2127 FMM=F ISym2X=0 I1Cent= 0 IOpClX= 0 NMat=1 NMatS=1 NMatT=0.
 -------------------------------------------------------------------
 Center     Atomic                   Forces (Hartrees/Bohr)
 Number     Number              X              Y              Z
 -------------------------------------------------------------------
      1        6           0.000825018    0.001009201    0.000262067
      2        1          -0.000228701   -0.000317845    0.000214919
      3        1           0.000159898   -0.000597520   -0.000269714
      4        1          -0.000141716   -0.000055064   -0.000185262
      5       17           0.001355754   -0.000001336    0.000001388
      6       35          -0.001970254   -0.000037437   -0.000023398
 -------------------------------------------------------------------
 Cartesian Forces:  Max     0.001970254 RMS     0.000675033

 GradGradGradGradGradGradGradGradGradGradGradGradGradGradGradGradGradGrad
 Berny optimization.
 Search for a local minimum.
 Step number   1 out of a maximum of    2
 All quantities printed in internal units (Hartrees-Bohrs-Radians)
 Second derivative matrix not updated -- first step.
 The second derivative matrix:
                          X1        Y1        Z1        X2        Y2
           X1           0.54427
           Y1           0.00078   0.64039
           Z1           0.00053  -0.00080   0.64134
           X2          -0.10228  -0.07838   0.05704   0.08567
           Y2          -0.06799  -0.24107   0.11663   0.07239   0.23524
           Z2           0.04948   0.11666  -0.16618  -0.05273  -0.12800
           X3          -0.10121   0.08731   0.03889   0.00822  -0.01109
           Y3           0.07558  -0.28451  -0.09073   0.00855  -0.01208
           Z3           0.03367  -0.09076  -0.12135  -0.01263   0.01826
           X4          -0.10280  -0.01017  -0.09704   0.00840   0.00669
           Y4          -0.00884  -0.08369  -0.02511   0.01487   0.01316
           Z4          -0.08427  -0.02512  -0.32266  -0.00435  -0.00361
           X5          -0.23798   0.00046   0.00058  -0.00000   0.00000
           Y5           0.00047  -0.03112   0.00002  -0.01742   0.00475
           Z5           0.00059   0.00002  -0.03115   0.01267  -0.00329
           X6           0.00000   0.00000   0.00000   0.00000   0.00000
           Y6           0.00000   0.00000   0.00000   0.00000   0.00000
           Z6           0.00000   0.00000   0.00000   0.00000   0.00000
                          Z2        X3        Y3        Z3        X4
           Z2           0.15299
           X3          -0.01062   0.08464
           Y3          -0.01180  -0.08050   0.28300
           Z3           0.01800  -0.03586   0.09960   0.10388
           X4           0.01387   0.00828  -0.00365   0.01480   0.08619
           Y4           0.02635  -0.01540   0.00771  -0.02958   0.00937
           Z4          -0.00738  -0.00116   0.00042  -0.00187   0.08977
           X5           0.00000   0.00007   0.00002   0.00001  -0.00007
           Y5          -0.00321   0.01968   0.00589   0.00248  -0.00224
           Z5           0.00256   0.00876   0.00252   0.00133  -0.02140
           X6           0.00000   0.00000   0.00000   0.00000   0.00000
           Y6           0.00000   0.00000   0.00000   0.00000   0.00000
           Z6           0.00000   0.00000   0.00000   0.00000   0.00000
                          Y4        Z4        X5        Y5        Z5
           Y4           0.06252
           Z4           0.02759   0.32483
           X5           0.00000   0.00002   0.23798
           Y5           0.00031   0.00072  -0.00049   0.02017
           Z5           0.00076   0.00707  -0.00061  -0.00001   0.02017
           X6           0.00000   0.00000   0.00000   0.00000   0.00000
           Y6           0.00000   0.00000   0.00000   0.00000   0.00000
           Z6           0.00000   0.00000   0.00000   0.00000   0.00000
                          X6        Y6        Z6
           X6           1.00000
           Y6           0.00000   1.00000
           Z6           0.00000   0.00000   1.00000
 ITU=  0
     Eigenvalues ---    0.02655   0.02655   0.07027   0.07038   0.09104
     Eigenvalues ---    0.13356   0.13374   0.28777   0.47492   0.76504
     Eigenvalues ---    0.92535   0.92837
 Angle between quadratic step and forces=  33.31 degrees.
 Linear search not attempted -- first point.
 B after Tr=     0.000133   -0.000154   -0.000029
         Rot=    1.000000    0.000000    0.000003   -0.000029 Ang=   0.00 deg.
 Variable       Old X    -DE/DX   Delta X   Delta X   Delta X     New X
                                 (Linear)    (Quad)   (Total)
    X1        2.74209   0.00083   0.00000   0.00215   0.00228   2.74437
    Y1        0.00694   0.00101   0.00000   0.00078   0.00079   0.00772
    Z1        0.00894   0.00026   0.00000   0.00025   0.00024   0.00918
    X2        2.10361  -0.00023   0.00000  -0.00230  -0.00208   2.10152
    Y2       -1.56205  -0.00032   0.00000   0.00066   0.00063  -1.56142
    Z2        1.15275   0.00021   0.00000   0.00011   0.00010   1.15285
    X3        2.10978   0.00016   0.00000  -0.00010  -0.00008   2.10970
    Y3        1.78538  -0.00060   0.00000  -0.00154  -0.00157   1.78380
    Z3        0.80143  -0.00027   0.00000  -0.00080  -0.00082   0.80061
    X4        2.09718  -0.00014   0.00000  -0.00163  -0.00147   2.09571
    Y4       -0.19387  -0.00006   0.00000   0.00066   0.00063  -0.19324
    Z4       -1.92068  -0.00019   0.00000   0.00066   0.00064  -1.92004
    X5        6.20272   0.00136   0.00000   0.00428   0.00441   6.20713
    Y5       -0.00079  -0.00000   0.00000  -0.00017   0.00004  -0.00075
    Z5       -0.00081   0.00000   0.00000  -0.00008  -0.00007  -0.00088
    X6       -3.24598  -0.00197   0.00000  -0.00319  -0.00306  -3.24904
    Y6       -0.00108  -0.00004   0.00000  -0.00017  -0.00051  -0.00159
    Z6       -0.00144  -0.00002   0.00000  -0.00004  -0.00009  -0.00153
         Item               Value     Threshold  Converged?
 Maximum Force            0.001970     0.000450     NO 
 RMS     Force            0.000675     0.000300     NO 
 Maximum Displacement     0.004408     0.001800     NO 
 RMS     Displacement     0.001595     0.001200     NO 
 Predicted change in Energy=-8.427248D-06
 GradGradGradGradGradGradGradGradGradGradGradGradGradGradGradGradGradGrad

 1\1\GINC-FS\Force\RM062X\6-311G(d,p)\C1H3Br1Cl1(1-)\XINYAN\22-Jan-2019
 \0\\# M062X/6-311G** force nosymm int=ultrafine\\Title\\-1,1\C,1.45105
 ,0.00367,0.00473\H,1.11318,-0.8266,0.61001\H,1.11645,0.94478,0.4241\H,
 1.10978,-0.10259,-1.01638\Cl,3.28234,-0.00042,-0.00043\Br,-1.7177,-0.0
 0057,-0.00076\\Version=ES64L-G16RevA.03\HF=-3074.3585784\RMSD=4.450e-0
 9\RMSF=6.750e-04\Dipole=1.7772218,0.003406,0.0041605\Quadrupole=-14.67
 48042,7.3367802,7.338024,0.0020022,0.0022066,-0.0006554\PG=C01 [X(C1H3
 Br1Cl1)]\\@


 IN THE FIGHT BETWEEN YOU AND THE WORLD, BACK THE WORLD

                                        -- FRANZ KAFKA
 Job cpu time:       0 days  0 hours  0 minutes 34.4 seconds.
 Elapsed time:       0 days  0 hours  0 minutes  7.4 seconds.
 File lengths (MBytes):  RWF=     10 Int=      0 D2E=      0 Chk=      2 Scr=      1
 Normal termination of Gaussian 16 at Tue Jan 22 16:57:34 2019.
