 Entering Gaussian System, Link 0=g16
 Input=CH3BrCl-9.gjf
 Output=CH3BrCl-9.log
 Initial command:
 /home/xinyan/g16/l1.exe "/scratch/tmp/Gau-12342.inp" -scrdir="/scratch/tmp/"
 Entering Link 1 = /home/xinyan/g16/l1.exe PID=     12343.
  
 Copyright (c) 1988,1990,1992,1993,1995,1998,2003,2009,2016,
            Gaussian, Inc.  All Rights Reserved.
  
 This is part of the Gaussian(R) 16 program.  It is based on
 the Gaussian(R) 09 system (copyright 2009, Gaussian, Inc.),
 the Gaussian(R) 03 system (copyright 2003, Gaussian, Inc.),
 the Gaussian(R) 98 system (copyright 1998, Gaussian, Inc.),
 the Gaussian(R) 94 system (copyright 1995, Gaussian, Inc.),
 the Gaussian 92(TM) system (copyright 1992, Gaussian, Inc.),
 the Gaussian 90(TM) system (copyright 1990, Gaussian, Inc.),
 the Gaussian 88(TM) system (copyright 1988, Gaussian, Inc.),
 the Gaussian 86(TM) system (copyright 1986, Carnegie Mellon
 University), and the Gaussian 82(TM) system (copyright 1983,
 Carnegie Mellon University). Gaussian is a federally registered
 trademark of Gaussian, Inc.
  
 This software contains proprietary and confidential information,
 including trade secrets, belonging to Gaussian, Inc.
  
 This software is provided under written license and may be
 used, copied, transmitted, or stored only in accord with that
 written license.
  
 The following legend is applicable only to US Government
 contracts under FAR:
  
                    RESTRICTED RIGHTS LEGEND
  
 Use, reproduction and disclosure by the US Government is
 subject to restrictions as set forth in subparagraphs (a)
 and (c) of the Commercial Computer Software - Restricted
 Rights clause in FAR 52.227-19.
  
 Gaussian, Inc.
 340 Quinnipiac St., Bldg. 40, Wallingford CT 06492
  
  
 ---------------------------------------------------------------
 Warning -- This program may not be used in any manner that
 competes with the business of Gaussian, Inc. or will provide
 assistance to any competitor of Gaussian, Inc.  The licensee
 of this program is prohibited from giving any competitor of
 Gaussian, Inc. access to this program.  By using this program,
 the user acknowledges that Gaussian, Inc. is engaged in the
 business of creating and licensing software in the field of
 computational chemistry and represents and warrants to the
 licensee that it is not a competitor of Gaussian, Inc. and that
 it will not use this program in any manner prohibited above.
 ---------------------------------------------------------------
  

 Cite this work as:
 Gaussian 16, Revision A.03,
 M. J. Frisch, G. W. Trucks, H. B. Schlegel, G. E. Scuseria, 
 M. A. Robb, J. R. Cheeseman, G. Scalmani, V. Barone, 
 G. A. Petersson, H. Nakatsuji, X. Li, M. Caricato, A. V. Marenich, 
 J. Bloino, B. G. Janesko, R. Gomperts, B. Mennucci, H. P. Hratchian, 
 J. V. Ortiz, A. F. Izmaylov, J. L. Sonnenberg, D. Williams-Young, 
 F. Ding, F. Lipparini, F. Egidi, J. Goings, B. Peng, A. Petrone, 
 T. Henderson, D. Ranasinghe, V. G. Zakrzewski, J. Gao, N. Rega, 
 G. Zheng, W. Liang, M. Hada, M. Ehara, K. Toyota, R. Fukuda, 
 J. Hasegawa, M. Ishida, T. Nakajima, Y. Honda, O. Kitao, H. Nakai, 
 T. Vreven, K. Throssell, J. A. Montgomery, Jr., J. E. Peralta, 
 F. Ogliaro, M. J. Bearpark, J. J. Heyd, E. N. Brothers, K. N. Kudin, 
 V. N. Staroverov, T. A. Keith, R. Kobayashi, J. Normand, 
 K. Raghavachari, A. P. Rendell, J. C. Burant, S. S. Iyengar, 
 J. Tomasi, M. Cossi, J. M. Millam, M. Klene, C. Adamo, R. Cammi, 
 J. W. Ochterski, R. L. Martin, K. Morokuma, O. Farkas, 
 J. B. Foresman, and D. J. Fox, Gaussian, Inc., Wallingford CT, 2016.
 
 ******************************************
 Gaussian 16:  ES64L-G16RevA.03 25-Dec-2016
                22-Jan-2019 
 ******************************************
 %nproc=5
 Will use up to    5 processors via shared memory.
 -------------------------------------------
 # M062X/6-311G** force nosymm int=ultrafine
 -------------------------------------------
 1/10=7,30=1,38=1/1,3;
 2/12=2,15=1,17=6,18=5,40=1/2;
 3/5=4,6=6,7=101,11=2,25=1,30=1,71=1,74=-55,75=-5/1,2,3;
 4//1;
 5/5=2,38=5/2;
 6/7=2,8=2,9=2,10=2,28=1/1;
 7/29=1,30=1/1,2,3,16;
 1/10=7,30=1/3;
 99//99;
 -----
 Title
 -----
 Symbolic Z-matrix:
 Charge = -1 Multiplicity = 1
 C                     0.64554   0.00032   0.00119 
 H                     0.84192  -0.85969   0.61719 
 H                     0.84172   0.96377   0.43819 
 H                     0.8425   -0.10286  -1.05148 
 Cl                    3.23829  -0.00008  -0.00028 
 Br                   -1.56531  -0.00003  -0.00011 
 

 GradGradGradGradGradGradGradGradGradGradGradGradGradGradGradGradGradGrad
 Berny optimization.
 Initialization pass.
 Trust Radius=3.00D-01 FncErr=1.00D-07 GrdErr=1.00D-07 EigMax=2.50D+02 EigMin=1.00D-04
 Number of steps in this run=      2 maximum allowed number of steps=      2.
 GradGradGradGradGradGradGradGradGradGradGradGradGradGradGradGradGradGrad

                          Input orientation:                          
 ---------------------------------------------------------------------
 Center     Atomic      Atomic             Coordinates (Angstroms)
 Number     Number       Type             X           Y           Z
 ---------------------------------------------------------------------
      1          6           0        0.645540    0.000320    0.001190
      2          1           0        0.841920   -0.859690    0.617190
      3          1           0        0.841720    0.963770    0.438190
      4          1           0        0.842500   -0.102860   -1.051480
      5         17           0        3.238290   -0.000080   -0.000280
      6         35           0       -1.565310   -0.000030   -0.000110
 ---------------------------------------------------------------------
                    Distance matrix (angstroms):
                    1          2          3          4          5
     1  C    0.000000
     2  H    1.075936   0.000000
     3  H    1.075961   1.832225   0.000000
     4  H    1.075897   1.832280   1.832162   0.000000
     5  Cl   2.592750   2.619692   2.620078   2.618281   0.000000
     6  Br   2.210850   2.629607   2.629603   2.629354   4.803600
                    6
     6  Br   0.000000
 Symmetry turned off by external request.
 This structure is nearly, but not quite of a higher symmetry.
 Consider Symm=Loose if the higher symmetry is desired.
 Stoichiometry    CH3BrCl(1-)
 Framework group  C1[X(CH3BrCl)]
 Deg. of freedom    12
 Full point group                 C1      NOp   1
 Rotational constants (GHZ):         149.3730335           0.8883395           0.8883392
 Standard basis: 6-311G(d,p) (5D, 7F)
   106 basis functions,   195 primitive gaussians,   111 cartesian basis functions
    31 alpha electrons       31 beta electrons
       nuclear repulsion energy       177.7827589770 Hartrees.
 NAtoms=    6 NActive=    6 NUniq=    6 SFac= 1.00D+00 NAtFMM=   60 NAOKFM=F Big=F
 Integral buffers will be    131072 words long.
 Raffenetti 2 integral format.
 Two-electron integral symmetry is turned off.
 One-electron integrals computed using PRISM.
 NBasis=   106 RedAO= T EigKep=  1.07D-02  NBF=   106
 NBsUse=   106 1.00D-06 EigRej= -1.00D+00 NBFU=   106
 ExpMin= 1.03D-01 ExpMax= 4.40D+05 ExpMxC= 1.51D+04 IAcc=3 IRadAn=         5 AccDes= 0.00D+00
 Harris functional with IExCor= 1009 and IRadAn=       5 diagonalized for initial guess.
 HarFok:  IExCor= 1009 AccDes= 0.00D+00 IRadAn=         5 IDoV= 1 UseB2=F ITyADJ=14
 ICtDFT=  3500011 ScaDFX=  1.000000  1.000000  1.000000  1.000000
 FoFCou: FMM=F IPFlag=           0 FMFlag=      100000 FMFlg1=           0
         NFxFlg=           0 DoJE=T BraDBF=F KetDBF=T FulRan=T
         wScrn=  0.000000 ICntrl=       500 IOpCl=  0 I1Cent=   200000004 NGrid=           0
         NMat0=    1 NMatS0=      1 NMatT0=    0 NMatD0=    1 NMtDS0=    0 NMtDT0=    0
 Symmetry not used in FoFCou.
 Keep R1 ints in memory in canonical form, NReq=20756204.
 Requested convergence on RMS density matrix=1.00D-08 within 128 cycles.
 Requested convergence on MAX density matrix=1.00D-06.
 Requested convergence on             energy=1.00D-06.
 No special actions if energy rises.
 Integral accuracy reduced to 1.0D-05 until final iterations.
 Initial convergence to 1.0D-05 achieved.  Increase integral accuracy.
 SCF Done:  E(RM062X) =  -3074.34307612     A.U. after   14 cycles
            NFock= 14  Conv=0.77D-08     -V/T= 2.0014

 **********************************************************************

            Population analysis using the SCF density.

 **********************************************************************

 Alpha  occ. eigenvalues -- -485.15514-102.38779 -63.14722 -56.97414 -56.97239
 Alpha  occ. eigenvalues --  -56.97239 -10.45327  -9.52975  -8.83364  -7.25135
 Alpha  occ. eigenvalues --   -7.25033  -7.25033  -6.65932  -6.65251  -6.65250
 Alpha  occ. eigenvalues --   -2.69082  -2.68860  -2.68860  -2.68257  -2.68257
 Alpha  occ. eigenvalues --   -0.70858  -0.63476  -0.59800  -0.36512  -0.36509
 Alpha  occ. eigenvalues --   -0.25271  -0.18538  -0.18538  -0.12804  -0.12803
 Alpha  occ. eigenvalues --   -0.12148
 Alpha virt. eigenvalues --    0.15513   0.23110   0.28986   0.28993   0.44948
 Alpha virt. eigenvalues --    0.46323   0.46325   0.48943   0.48946   0.51161
 Alpha virt. eigenvalues --    0.55230   0.55236   0.61394   0.67792   0.76515
 Alpha virt. eigenvalues --    0.76521   0.79170   0.84907   0.84908   0.87444
 Alpha virt. eigenvalues --    0.87447   0.88756   1.00184   1.13503   1.20941
 Alpha virt. eigenvalues --    1.20943   1.21018   1.21018   1.28445   1.28451
 Alpha virt. eigenvalues --    1.38141   1.60050   1.64257   1.64264   1.72805
 Alpha virt. eigenvalues --    1.90331   1.90334   2.02842   2.10691   2.10695
 Alpha virt. eigenvalues --    2.23177   2.23184   2.27102   2.41804   2.41807
 Alpha virt. eigenvalues --    2.50785   2.60970   2.60973   2.61778   2.75642
 Alpha virt. eigenvalues --    2.75643   3.05109   3.15229   3.88802   3.88812
 Alpha virt. eigenvalues --    4.45796   4.45798   4.51773   4.51775   4.74798
 Alpha virt. eigenvalues --    6.70611   7.72505   7.72506   7.82903   9.89035
 Alpha virt. eigenvalues --   24.08726  25.77306  25.77311  26.02785  48.28396
 Alpha virt. eigenvalues --  215.93369 290.87570 290.87571 290.992301020.77421
          Condensed to atoms (all electrons):
               1          2          3          4          5          6
     1  C    4.983134   0.414023   0.414000   0.414101   0.012363   0.115591
     2  H    0.414023   0.489944  -0.016089  -0.016050  -0.027045  -0.045623
     3  H    0.414000  -0.016089   0.489997  -0.016068  -0.027023  -0.045615
     4  H    0.414101  -0.016050  -0.016068   0.489858  -0.027136  -0.045677
     5  Cl   0.012363  -0.027045  -0.027023  -0.027136  17.882736   0.014588
     6  Br   0.115591  -0.045623  -0.045615  -0.045677   0.014588  35.427652
 Mulliken charges:
               1
     1  C   -0.353212
     2  H    0.200839
     3  H    0.200799
     4  H    0.200974
     5  Cl  -0.828484
     6  Br  -0.420915
 Sum of Mulliken charges =  -1.00000
 Mulliken charges with hydrogens summed into heavy atoms:
               1
     1  C    0.249399
     5  Cl  -0.828484
     6  Br  -0.420915
 Electronic spatial extent (au):  <R**2>=           1103.8669
 Charge=             -1.0000 electrons
 Dipole moment (field-independent basis, Debye):
    X=             -8.3839    Y=              0.0009    Z=              0.0029  Tot=              8.3839
 Quadrupole moment (field-independent basis, Debye-Ang):
   XX=            -92.0959   YY=            -43.0567   ZZ=            -43.0558
   XY=              0.0012   XZ=              0.0046   YZ=             -0.0004
 Traceless Quadrupole moment (field-independent basis, Debye-Ang):
   XX=            -32.6931   YY=             16.3461   ZZ=             16.3470
   XY=              0.0012   XZ=              0.0046   YZ=             -0.0004
 Octapole moment (field-independent basis, Debye-Ang**2):
  XXX=           -216.0941  YYY=              0.3142  ZZZ=             -1.0446  XYY=            -24.3792
  XXY=              0.0013  XXZ=              0.0041  XZZ=            -24.3783  YZZ=             -0.3150
  YYZ=              1.0408  XYZ=             -0.0002
 Hexadecapole moment (field-independent basis, Debye-Ang**3):
 XXXX=          -1851.3180 YYYY=            -63.3563 ZZZZ=            -63.3588 XXXY=              0.0132
 XXXZ=              0.0499 YYYX=              0.2773 YYYZ=              0.0011 ZZZX=             -0.8810
 ZZZY=             -0.0022 XXYY=           -245.1430 XXZZ=           -245.1399 YYZZ=            -21.1161
 XXYZ=             -0.0014 YYXZ=              0.9063 ZZXY=             -0.2702
 N-N= 1.777827589770D+02 E-N=-7.708759648907D+03  KE= 3.070166921496D+03
 Calling FoFJK, ICntrl=      2127 FMM=F ISym2X=0 I1Cent= 0 IOpClX= 0 NMat=1 NMatS=1 NMatT=0.
 -------------------------------------------------------------------
 Center     Atomic                   Forces (Hartrees/Bohr)
 Number     Number              X              Y              Z
 -------------------------------------------------------------------
      1        6          -0.020690565    0.000019208   -0.000010627
      2        1          -0.000488975    0.000258076   -0.000178866
      3        1          -0.000486275   -0.000284117   -0.000132690
      4        1          -0.000478392    0.000027691    0.000315176
      5       17           0.011134774   -0.000012895   -0.000002730
      6       35           0.011009433   -0.000007964    0.000009737
 -------------------------------------------------------------------
 Cartesian Forces:  Max     0.020690565 RMS     0.006120514

 GradGradGradGradGradGradGradGradGradGradGradGradGradGradGradGradGradGrad
 Berny optimization.
 Search for a local minimum.
 Step number   1 out of a maximum of    2
 All quantities printed in internal units (Hartrees-Bohrs-Radians)
 Second derivative matrix not updated -- first step.
 The second derivative matrix:
                          X1        Y1        Z1        X2        Y2
           X1           0.31409
           Y1          -0.00007   0.70362
           Z1          -0.00015  -0.00004   0.70370
           X2          -0.07550   0.04739  -0.03392   0.06049
           Y2           0.04369  -0.26872   0.11917  -0.04594   0.25815
           Z2          -0.03127   0.11917  -0.18770   0.03290  -0.13439
           X3          -0.07547  -0.05302  -0.02404   0.00749   0.00748
           Y3          -0.04888  -0.31112  -0.09470  -0.00577  -0.01043
           Z3          -0.02216  -0.09470  -0.14528   0.00935   0.01963
           X4          -0.07556   0.00571   0.05816   0.00751  -0.00522
           Y4           0.00527  -0.10474  -0.02443  -0.01074   0.01869
           Z4           0.05363  -0.02444  -0.35167   0.00246  -0.00281
           X5           0.00000   0.00000   0.00000   0.00000   0.00000
           Y5           0.00000   0.00000   0.00000   0.00000   0.00000
           Z5           0.00000   0.00000   0.00000   0.00000   0.00000
           X6          -0.08757  -0.00001  -0.00004   0.00000   0.00000
           Y6          -0.00001  -0.01905   0.00000   0.01507   0.00230
           Z6          -0.00004   0.00000  -0.01905  -0.01079  -0.00160
                          Z2        X3        Y3        Z3        X4
           Z2           0.16678
           X3           0.00806   0.06046
           Y3          -0.01272   0.05141   0.30596
           Z3           0.02442   0.02332   0.10679   0.11896
           X4          -0.00969   0.00750   0.00324  -0.01051   0.06055
           Y4           0.02952   0.01101   0.01272  -0.03298  -0.00553
           Z4          -0.00471   0.00032  -0.00064   0.00127  -0.05641
           X5           0.00000   0.00000   0.00000   0.00000   0.00000
           Y5           0.00000   0.00000   0.00000   0.00000   0.00000
           Z5           0.00000   0.00000   0.00000   0.00000   0.00000
           X6          -0.00000   0.00001  -0.00000  -0.00000  -0.00001
           Y6          -0.00159  -0.01688   0.00287   0.00126   0.00181
           Z6           0.00121  -0.00765   0.00127   0.00064   0.01844
                          Y4        Z4        X5        Y5        Z5
           Y4           0.07323
           Z4           0.02756   0.35169
           X5           0.00000   0.00000   1.00000
           Y5           0.00000   0.00000   0.00000   1.00000
           Z5           0.00000   0.00000   0.00000   0.00000   1.00000
           X6          -0.00000  -0.00000   0.00000   0.00000   0.00000
           Y6           0.00010   0.00033   0.00000   0.00000   0.00000
           Z6           0.00033   0.00342   0.00000   0.00000   0.00000
                          X6        Y6        Z6
           X6           0.08757
           Y6           0.00001   0.01378
           Z6           0.00004  -0.00000   0.01378
 ITU=  0
     Eigenvalues ---    0.04673   0.04913   0.04914   0.09001   0.09001
     Eigenvalues ---    0.15547   0.15549   0.27064   0.47888   0.73210
     Eigenvalues ---    1.00841   1.00858
 Angle between quadratic step and forces=  52.70 degrees.
 Linear search not attempted -- first point.
 B after Tr=     0.051062   -0.000031    0.000044
         Rot=    1.000000    0.000000   -0.000006   -0.000001 Ang=   0.00 deg.
 Variable       Old X    -DE/DX   Delta X   Delta X   Delta X     New X
                                 (Linear)    (Quad)   (Total)
    X1        1.21989  -0.02069   0.00000  -0.10753  -0.05646   1.16343
    Y1        0.00060   0.00002   0.00000   0.00008   0.00005   0.00066
    Z1        0.00225  -0.00001   0.00000  -0.00006  -0.00004   0.00221
    X2        1.59100  -0.00049   0.00000  -0.09958  -0.04850   1.54250
    Y2       -1.62458   0.00026   0.00000   0.00177   0.00174  -1.62284
    Z2        1.16632  -0.00018   0.00000  -0.00128  -0.00126   1.16506
    X3        1.59062  -0.00049   0.00000  -0.09948  -0.04841   1.54221
    Y3        1.82126  -0.00028   0.00000  -0.00185  -0.00188   1.81938
    Z3        0.82806  -0.00013   0.00000  -0.00091  -0.00088   0.82718
    X4        1.59209  -0.00048   0.00000  -0.09934  -0.04831   1.54379
    Y4       -0.19438   0.00003   0.00000   0.00025   0.00022  -0.19416
    Z4       -1.98701   0.00032   0.00000   0.00206   0.00208  -1.98493
    X5        6.11948   0.01113   0.00000   0.01517   0.06624   6.18572
    Y5       -0.00015  -0.00001   0.00000  -0.00005  -0.00007  -0.00022
    Z5       -0.00053  -0.00000   0.00000  -0.00002  -0.00005  -0.00058
    X6       -2.95801   0.01101   0.00000   0.08438   0.13545  -2.82256
    Y6       -0.00006  -0.00001   0.00000  -0.00003  -0.00006  -0.00012
    Z6       -0.00021   0.00001   0.00000   0.00006   0.00014  -0.00007
         Item               Value     Threshold  Converged?
 Maximum Force            0.020691     0.000450     NO 
 RMS     Force            0.006121     0.000300     NO 
 Maximum Displacement     0.135445     0.001800     NO 
 RMS     Displacement     0.042794     0.001200     NO 
 Predicted change in Energy=-3.438051D-04
 GradGradGradGradGradGradGradGradGradGradGradGradGradGradGradGradGradGrad

 1\1\GINC-FS\Force\RM062X\6-311G(d,p)\C1H3Br1Cl1(1-)\XINYAN\22-Jan-2019
 \0\\# M062X/6-311G** force nosymm int=ultrafine\\Title\\-1,1\C,0.64554
 ,0.00032,0.00119\H,0.84192,-0.85969,0.61719\H,0.84172,0.96377,0.43819\
 H,0.8425,-0.10286,-1.05148\Cl,3.23829,-0.00008,-0.00028\Br,-1.56531,-0
 .00003,-0.00011\\Version=ES64L-G16RevA.03\HF=-3074.3430761\RMSD=7.709e
 -09\RMSF=6.121e-03\Dipole=-3.0920311,0.0003884,0.0012072\Quadrupole=-2
 4.3065047,12.1529443,12.1535604,0.0008617,0.0033939,-0.0003268\PG=C01 
 [X(C1H3Br1Cl1)]\\@


 IN NATURE THERE ARE NEITHER REWARDS OR
 PUNISHMENTS -- THERE ARE CONSEQUENCES.

                            -- ROBERT GREEN INGERSOLL
 Job cpu time:       0 days  0 hours  0 minutes 50.3 seconds.
 Elapsed time:       0 days  0 hours  0 minutes 10.7 seconds.
 File lengths (MBytes):  RWF=     10 Int=      0 D2E=      0 Chk=      2 Scr=      1
 Normal termination of Gaussian 16 at Tue Jan 22 16:50:12 2019.
