 Entering Gaussian System, Link 0=g16
 Input=CH3BrCl-16.gjf
 Output=CH3BrCl-16.log
 Initial command:
 /home/xinyan/g16/l1.exe "/scratch/tmp/Gau-12817.inp" -scrdir="/scratch/tmp/"
 Entering Link 1 = /home/xinyan/g16/l1.exe PID=     12818.
  
 Copyright (c) 1988,1990,1992,1993,1995,1998,2003,2009,2016,
            Gaussian, Inc.  All Rights Reserved.
  
 This is part of the Gaussian(R) 16 program.  It is based on
 the Gaussian(R) 09 system (copyright 2009, Gaussian, Inc.),
 the Gaussian(R) 03 system (copyright 2003, Gaussian, Inc.),
 the Gaussian(R) 98 system (copyright 1998, Gaussian, Inc.),
 the Gaussian(R) 94 system (copyright 1995, Gaussian, Inc.),
 the Gaussian 92(TM) system (copyright 1992, Gaussian, Inc.),
 the Gaussian 90(TM) system (copyright 1990, Gaussian, Inc.),
 the Gaussian 88(TM) system (copyright 1988, Gaussian, Inc.),
 the Gaussian 86(TM) system (copyright 1986, Carnegie Mellon
 University), and the Gaussian 82(TM) system (copyright 1983,
 Carnegie Mellon University). Gaussian is a federally registered
 trademark of Gaussian, Inc.
  
 This software contains proprietary and confidential information,
 including trade secrets, belonging to Gaussian, Inc.
  
 This software is provided under written license and may be
 used, copied, transmitted, or stored only in accord with that
 written license.
  
 The following legend is applicable only to US Government
 contracts under FAR:
  
                    RESTRICTED RIGHTS LEGEND
  
 Use, reproduction and disclosure by the US Government is
 subject to restrictions as set forth in subparagraphs (a)
 and (c) of the Commercial Computer Software - Restricted
 Rights clause in FAR 52.227-19.
  
 Gaussian, Inc.
 340 Quinnipiac St., Bldg. 40, Wallingford CT 06492
  
  
 ---------------------------------------------------------------
 Warning -- This program may not be used in any manner that
 competes with the business of Gaussian, Inc. or will provide
 assistance to any competitor of Gaussian, Inc.  The licensee
 of this program is prohibited from giving any competitor of
 Gaussian, Inc. access to this program.  By using this program,
 the user acknowledges that Gaussian, Inc. is engaged in the
 business of creating and licensing software in the field of
 computational chemistry and represents and warrants to the
 licensee that it is not a competitor of Gaussian, Inc. and that
 it will not use this program in any manner prohibited above.
 ---------------------------------------------------------------
  

 Cite this work as:
 Gaussian 16, Revision A.03,
 M. J. Frisch, G. W. Trucks, H. B. Schlegel, G. E. Scuseria, 
 M. A. Robb, J. R. Cheeseman, G. Scalmani, V. Barone, 
 G. A. Petersson, H. Nakatsuji, X. Li, M. Caricato, A. V. Marenich, 
 J. Bloino, B. G. Janesko, R. Gomperts, B. Mennucci, H. P. Hratchian, 
 J. V. Ortiz, A. F. Izmaylov, J. L. Sonnenberg, D. Williams-Young, 
 F. Ding, F. Lipparini, F. Egidi, J. Goings, B. Peng, A. Petrone, 
 T. Henderson, D. Ranasinghe, V. G. Zakrzewski, J. Gao, N. Rega, 
 G. Zheng, W. Liang, M. Hada, M. Ehara, K. Toyota, R. Fukuda, 
 J. Hasegawa, M. Ishida, T. Nakajima, Y. Honda, O. Kitao, H. Nakai, 
 T. Vreven, K. Throssell, J. A. Montgomery, Jr., J. E. Peralta, 
 F. Ogliaro, M. J. Bearpark, J. J. Heyd, E. N. Brothers, K. N. Kudin, 
 V. N. Staroverov, T. A. Keith, R. Kobayashi, J. Normand, 
 K. Raghavachari, A. P. Rendell, J. C. Burant, S. S. Iyengar, 
 J. Tomasi, M. Cossi, J. M. Millam, M. Klene, C. Adamo, R. Cammi, 
 J. W. Ochterski, R. L. Martin, K. Morokuma, O. Farkas, 
 J. B. Foresman, and D. J. Fox, Gaussian, Inc., Wallingford CT, 2016.
 
 ******************************************
 Gaussian 16:  ES64L-G16RevA.03 25-Dec-2016
                22-Jan-2019 
 ******************************************
 %nproc=5
 Will use up to    5 processors via shared memory.
 -------------------------------------------
 # M062X/6-311G** force nosymm int=ultrafine
 -------------------------------------------
 1/10=7,30=1,38=1/1,3;
 2/12=2,15=1,17=6,18=5,40=1/2;
 3/5=4,6=6,7=101,11=2,25=1,30=1,71=1,74=-55,75=-5/1,2,3;
 4//1;
 5/5=2,38=5/2;
 6/7=2,8=2,9=2,10=2,28=1/1;
 7/29=1,30=1/1,2,3,16;
 1/10=7,30=1/3;
 99//99;
 -----
 Title
 -----
 Symbolic Z-matrix:
 Charge = -1 Multiplicity = 1
 C                     0.47216   0.00041   0.00124 
 H                     0.7733   -0.84195   0.60516 
 H                     0.77293   0.94453   0.42922 
 H                     0.7746   -0.10105  -1.02984 
 Cl                    3.2774   -0.00011  -0.00032 
 Br                   -1.55365  -0.00004  -0.0001 
 

 GradGradGradGradGradGradGradGradGradGradGradGradGradGradGradGradGradGrad
 Berny optimization.
 Initialization pass.
 Trust Radius=3.00D-01 FncErr=1.00D-07 GrdErr=1.00D-07 EigMax=2.50D+02 EigMin=1.00D-04
 Number of steps in this run=      2 maximum allowed number of steps=      2.
 GradGradGradGradGradGradGradGradGradGradGradGradGradGradGradGradGradGrad

                          Input orientation:                          
 ---------------------------------------------------------------------
 Center     Atomic      Atomic             Coordinates (Angstroms)
 Number     Number       Type             X           Y           Z
 ---------------------------------------------------------------------
      1          6           0        0.472160    0.000410    0.001240
      2          1           0        0.773300   -0.841950    0.605160
      3          1           0        0.772930    0.944530    0.429220
      4          1           0        0.774600   -0.101050   -1.029840
      5         17           0        3.277400   -0.000110   -0.000320
      6         35           0       -1.553650   -0.000040   -0.000100
 ---------------------------------------------------------------------
                    Distance matrix (angstroms):
                    1          2          3          4          5
     1  C    0.000000
     2  H    1.079340   0.000000
     3  H    1.079348   1.795123   0.000000
     4  H    1.079301   1.795037   1.795020   0.000000
     5  Cl   2.805240   2.710317   2.710944   2.708156   0.000000
     6  Br   2.025810   2.547518   2.547450   2.547806   4.831050
                    6
     6  Br   0.000000
 Symmetry turned off by external request.
 This structure is nearly, but not quite of a higher symmetry.
 Consider Symm=Loose if the higher symmetry is desired.
 Stoichiometry    CH3BrCl(1-)
 Framework group  C1[X(CH3BrCl)]
 Deg. of freedom    12
 Full point group                 C1      NOp   1
 Rotational constants (GHZ):         155.6216217           0.8831957           0.8831954
 Standard basis: 6-311G(d,p) (5D, 7F)
   106 basis functions,   195 primitive gaussians,   111 cartesian basis functions
    31 alpha electrons       31 beta electrons
       nuclear repulsion energy       180.7503071208 Hartrees.
 NAtoms=    6 NActive=    6 NUniq=    6 SFac= 1.00D+00 NAtFMM=   60 NAOKFM=F Big=F
 Integral buffers will be    131072 words long.
 Raffenetti 2 integral format.
 Two-electron integral symmetry is turned off.
 One-electron integrals computed using PRISM.
 NBasis=   106 RedAO= T EigKep=  1.01D-02  NBF=   106
 NBsUse=   106 1.00D-06 EigRej= -1.00D+00 NBFU=   106
 ExpMin= 1.03D-01 ExpMax= 4.40D+05 ExpMxC= 1.51D+04 IAcc=3 IRadAn=         5 AccDes= 0.00D+00
 Harris functional with IExCor= 1009 and IRadAn=       5 diagonalized for initial guess.
 HarFok:  IExCor= 1009 AccDes= 0.00D+00 IRadAn=         5 IDoV= 1 UseB2=F ITyADJ=14
 ICtDFT=  3500011 ScaDFX=  1.000000  1.000000  1.000000  1.000000
 FoFCou: FMM=F IPFlag=           0 FMFlag=      100000 FMFlg1=           0
         NFxFlg=           0 DoJE=T BraDBF=F KetDBF=T FulRan=T
         wScrn=  0.000000 ICntrl=       500 IOpCl=  0 I1Cent=   200000004 NGrid=           0
         NMat0=    1 NMatS0=      1 NMatT0=    0 NMatD0=    1 NMtDS0=    0 NMtDT0=    0
 Symmetry not used in FoFCou.
 Keep R1 ints in memory in canonical form, NReq=20756204.
 Requested convergence on RMS density matrix=1.00D-08 within 128 cycles.
 Requested convergence on MAX density matrix=1.00D-06.
 Requested convergence on             energy=1.00D-06.
 No special actions if energy rises.
 Integral accuracy reduced to 1.0D-05 until final iterations.
 Initial convergence to 1.0D-05 achieved.  Increase integral accuracy.
 SCF Done:  E(RM062X) =  -3074.34984953     A.U. after   13 cycles
            NFock= 13  Conv=0.56D-08     -V/T= 2.0013

 **********************************************************************

            Population analysis using the SCF density.

 **********************************************************************

 Alpha  occ. eigenvalues -- -485.18100-102.36633 -63.17322 -57.00034 -56.99828
 Alpha  occ. eigenvalues --  -56.99828 -10.44160  -9.50827  -8.86007  -7.22946
 Alpha  occ. eigenvalues --   -7.22916  -7.22916  -6.68668  -6.67850  -6.67850
 Alpha  occ. eigenvalues --   -2.71821  -2.71543  -2.71543  -2.70817  -2.70817
 Alpha  occ. eigenvalues --   -0.74326  -0.61990  -0.58927  -0.36018  -0.36015
 Alpha  occ. eigenvalues --   -0.28799  -0.20253  -0.20252  -0.10932  -0.10932
 Alpha  occ. eigenvalues --   -0.10724
 Alpha virt. eigenvalues --    0.17427   0.23863   0.29008   0.29016   0.44255
 Alpha virt. eigenvalues --    0.46043   0.46046   0.47431   0.47432   0.54237
 Alpha virt. eigenvalues --    0.56514   0.56522   0.57789   0.69170   0.76543
 Alpha virt. eigenvalues --    0.76549   0.78286   0.82438   0.82441   0.85962
 Alpha virt. eigenvalues --    0.85964   0.91514   1.02156   1.10470   1.22898
 Alpha virt. eigenvalues --    1.22899   1.23298   1.23300   1.29566   1.29567
 Alpha virt. eigenvalues --    1.35077   1.62577   1.65922   1.65927   1.82967
 Alpha virt. eigenvalues --    1.86315   1.86317   2.07549   2.09881   2.09883
 Alpha virt. eigenvalues --    2.27918   2.29890   2.29891   2.43545   2.43548
 Alpha virt. eigenvalues --    2.50631   2.57802   2.60688   2.60696   2.71118
 Alpha virt. eigenvalues --    2.71126   3.11896   3.16427   3.89949   3.89953
 Alpha virt. eigenvalues --    4.43478   4.43480   4.52860   4.52861   4.80851
 Alpha virt. eigenvalues --    6.70588   7.70660   7.70660   7.81199   9.89450
 Alpha virt. eigenvalues --   24.09560  25.78959  25.78967  25.99778  48.27563
 Alpha virt. eigenvalues --  215.93342 290.85432 290.85433 290.986791020.76927
          Condensed to atoms (all electrons):
               1          2          3          4          5          6
     1  C    5.027060   0.411866   0.411853   0.411904  -0.013367   0.140467
     2  H    0.411866   0.491246  -0.017361  -0.017343  -0.012954  -0.050758
     3  H    0.411853  -0.017361   0.491307  -0.017351  -0.012941  -0.050761
     4  H    0.411904  -0.017343  -0.017351   0.491051  -0.013005  -0.050736
     5  Cl  -0.013367  -0.012954  -0.012941  -0.013005  17.949391   0.011023
     6  Br   0.140467  -0.050758  -0.050761  -0.050736   0.011023  35.288872
 Mulliken charges:
               1
     1  C   -0.389783
     2  H    0.195304
     3  H    0.195254
     4  H    0.195479
     5  Cl  -0.908147
     6  Br  -0.288108
 Sum of Mulliken charges =  -1.00000
 Mulliken charges with hydrogens summed into heavy atoms:
               1
     1  C    0.196255
     5  Cl  -0.908147
     6  Br  -0.288108
 Electronic spatial extent (au):  <R**2>=           1111.2307
 Charge=             -1.0000 electrons
 Dipole moment (field-independent basis, Debye):
    X=            -10.7378    Y=              0.0011    Z=              0.0030  Tot=             10.7378
 Quadrupole moment (field-independent basis, Debye-Ang):
   XX=            -95.1929   YY=            -43.0259   ZZ=            -43.0255
   XY=              0.0017   XZ=              0.0051   YZ=             -0.0002
 Traceless Quadrupole moment (field-independent basis, Debye-Ang):
   XX=            -34.7781   YY=             17.3888   ZZ=             17.3893
   XY=              0.0017   XZ=              0.0051   YZ=             -0.0002
 Octapole moment (field-independent basis, Debye-Ang**2):
  XXX=           -241.2369  YYY=              0.2829  ZZZ=             -0.9373  XYY=            -26.0436
  XXY=              0.0027  XXZ=              0.0067  XZZ=            -26.0416  YZZ=             -0.2834
  YYZ=              0.9328  XYZ=             -0.0002
 Hexadecapole moment (field-independent basis, Debye-Ang**3):
 XXXX=          -1934.2997 YYYY=            -63.0805 ZZZZ=            -63.0840 XXXY=              0.0267
 XXXZ=              0.0813 YYYX=              0.2306 YYYZ=              0.0014 ZZZX=             -0.6951
 ZZZY=             -0.0021 XXYY=           -248.9893 XXZZ=           -248.9839 YYZZ=            -21.0241
 XXYZ=             -0.0013 YYXZ=              0.7370 ZZXY=             -0.2170
 N-N= 1.807503071208D+02 E-N=-7.714215984649D+03  KE= 3.070222865813D+03
 Calling FoFJK, ICntrl=      2127 FMM=F ISym2X=0 I1Cent= 0 IOpClX= 0 NMat=1 NMatS=1 NMatT=0.
 -------------------------------------------------------------------
 Center     Atomic                   Forces (Hartrees/Bohr)
 Number     Number              X              Y              Z
 -------------------------------------------------------------------
      1        6          -0.007820432    0.000003181    0.000028403
      2        1          -0.000347613   -0.000019068    0.000020744
      3        1          -0.000354086    0.000032326    0.000011383
      4        1          -0.000352563   -0.000006989   -0.000040858
      5       17           0.008998899   -0.000004030   -0.000015258
      6       35          -0.000124205   -0.000005420   -0.000004415
 -------------------------------------------------------------------
 Cartesian Forces:  Max     0.008998899 RMS     0.002813954

 GradGradGradGradGradGradGradGradGradGradGradGradGradGradGradGradGradGrad
 Berny optimization.
 Search for a local minimum.
 Step number   1 out of a maximum of    2
 All quantities printed in internal units (Hartrees-Bohrs-Radians)
 Second derivative matrix not updated -- first step.
 The second derivative matrix:
                          X1        Y1        Z1        X2        Y2
           X1           0.41279
           Y1          -0.00009   0.65758
           Z1          -0.00029  -0.00001   0.65762
           X2          -0.09333   0.07287  -0.05221   0.07798
           Y2           0.06316  -0.25055   0.11735  -0.06678   0.24377
           Z2          -0.04525   0.11736  -0.17102   0.04785  -0.12986
           X3          -0.09327  -0.08158  -0.03696   0.00766   0.01020
           Y3          -0.07069  -0.29249  -0.09321  -0.00797  -0.01164
           Z3          -0.03203  -0.09322  -0.12914   0.01219   0.01851
           X4          -0.09355   0.00882   0.08953   0.00769  -0.00658
           Y4           0.00765  -0.08926  -0.02413  -0.01415   0.01457
           Z4           0.07763  -0.02413  -0.33215   0.00365  -0.00336
           X5           0.00000   0.00000   0.00000   0.00000   0.00000
           Y5           0.00000   0.00000   0.00000   0.00000   0.00000
           Z5           0.00000   0.00000   0.00000   0.00000   0.00000
           X6          -0.13264  -0.00002  -0.00007   0.00000   0.00000
           Y6          -0.00002  -0.02529   0.00000   0.01602   0.00384
           Z6          -0.00007   0.00000  -0.02530  -0.01148  -0.00264
                          Z2        X3        Y3        Z3        X4
           Z2           0.15575
           X3           0.01041   0.07792
           Y3          -0.01226   0.07474   0.29017
           Z3           0.01974   0.03387   0.10314   0.10941
           X4          -0.01301   0.00768   0.00391  -0.01403   0.07819
           Y4           0.02738   0.01459   0.00918  -0.03051  -0.00808
           Z4          -0.00651   0.00082   0.00024  -0.00111  -0.08210
           X5           0.00000   0.00000   0.00000   0.00000   0.00000
           Y5           0.00000   0.00000   0.00000   0.00000   0.00000
           Z5           0.00000   0.00000   0.00000   0.00000   0.00000
           X6          -0.00000   0.00001  -0.00000  -0.00000  -0.00001
           Y6          -0.00263  -0.01796   0.00478   0.00208   0.00193
           Z6           0.00204  -0.00814   0.00209   0.00110   0.01961
                          Y4        Z4        X5        Y5        Z5
           Y4           0.06529
           Z4           0.02671   0.33408
           X5           0.00000   0.00000   1.00000
           Y5           0.00000   0.00000   0.00000   1.00000
           Z5           0.00000   0.00000   0.00000   0.00000   1.00000
           X6          -0.00000  -0.00000   0.00000   0.00000   0.00000
           Y6           0.00021   0.00055   0.00000   0.00000   0.00000
           Z6           0.00055   0.00570   0.00000   0.00000   0.00000
                          X6        Y6        Z6
           X6           0.13264
           Y6           0.00003   0.01646
           Z6           0.00008  -0.00000   0.01646
 ITU=  0
     Eigenvalues ---    0.05173   0.05174   0.06187   0.08369   0.08370
     Eigenvalues ---    0.14140   0.14140   0.26097   0.60230   0.73735
     Eigenvalues ---    0.95979   0.95985
 Angle between quadratic step and forces=  51.86 degrees.
 Linear search not attempted -- first point.
 B after Tr=     0.009242   -0.000015   -0.000036
         Rot=    1.000000    0.000000    0.000002    0.000001 Ang=   0.00 deg.
 Variable       Old X    -DE/DX   Delta X   Delta X   Delta X     New X
                                 (Linear)    (Quad)   (Total)
    X1        0.89225  -0.00782   0.00000  -0.02386  -0.01461   0.87764
    Y1        0.00077   0.00000   0.00000   0.00003   0.00001   0.00079
    Z1        0.00234   0.00003   0.00000   0.00010   0.00007   0.00241
    X2        1.46133  -0.00035   0.00000  -0.01803  -0.00879   1.45253
    Y2       -1.59105  -0.00002   0.00000   0.00103   0.00102  -1.59004
    Z2        1.14359   0.00002   0.00000  -0.00066  -0.00069   1.14290
    X3        1.46063  -0.00035   0.00000  -0.01815  -0.00891   1.45172
    Y3        1.78490   0.00003   0.00000  -0.00106  -0.00108   1.78382
    Z3        0.81111   0.00001   0.00000  -0.00044  -0.00047   0.81064
    X4        1.46378  -0.00035   0.00000  -0.01820  -0.00895   1.45483
    Y4       -0.19096  -0.00001   0.00000   0.00015   0.00013  -0.19082
    Z4       -1.94612  -0.00004   0.00000   0.00126   0.00123  -1.94488
    X5        6.19339   0.00900   0.00000   0.01226   0.02151   6.21489
    Y5       -0.00021  -0.00000   0.00000  -0.00003  -0.00006  -0.00027
    Z5       -0.00060  -0.00002   0.00000  -0.00005  -0.00005  -0.00066
    X6       -2.93597  -0.00012   0.00000   0.01052   0.01976  -2.91621
    Y6       -0.00008  -0.00001   0.00000  -0.00001  -0.00002  -0.00009
    Z6       -0.00019  -0.00000   0.00000  -0.00004  -0.00009  -0.00027
         Item               Value     Threshold  Converged?
 Maximum Force            0.008999     0.000450     NO 
 RMS     Force            0.002814     0.000300     NO 
 Maximum Displacement     0.021506     0.001800     NO 
 RMS     Displacement     0.008525     0.001200     NO 
 Predicted change in Energy=-1.251059D-06
 GradGradGradGradGradGradGradGradGradGradGradGradGradGradGradGradGradGrad

 1\1\GINC-FS\Force\RM062X\6-311G(d,p)\C1H3Br1Cl1(1-)\XINYAN\22-Jan-2019
 \0\\# M062X/6-311G** force nosymm int=ultrafine\\Title\\-1,1\C,0.47216
 ,0.00041,0.00124\H,0.7733,-0.84195,0.60516\H,0.77293,0.94453,0.42922\H
 ,0.7746,-0.10105,-1.02984\Cl,3.2774,-0.00011,-0.00032\Br,-1.55365,-0.0
 0004,-0.0001\\Version=ES64L-G16RevA.03\HF=-3074.3498495\RMSD=5.638e-09
 \RMSF=2.814e-03\Dipole=-4.0234777,0.0004435,0.0012591\Quadrupole=-25.8
 566785,12.9281766,12.9285019,0.0012656,0.0037787,-0.0001647\PG=C01 [X(
 C1H3Br1Cl1)]\\@


 YOU WILL NEVER "FIND" TIME FOR ANYTHING.
 IF YOU WANT TIME, YOU MUST MAKE IT.

                        -- CHARLES BIXTON
 Job cpu time:       0 days  0 hours  0 minutes 46.0 seconds.
 Elapsed time:       0 days  0 hours  0 minutes  9.9 seconds.
 File lengths (MBytes):  RWF=     10 Int=      0 D2E=      0 Chk=      2 Scr=      1
 Normal termination of Gaussian 16 at Tue Jan 22 16:51:22 2019.
