 Entering Gaussian System, Link 0=g16
 Input=CH3BrCl-7.gjf
 Output=CH3BrCl-7.log
 Initial command:
 /home/xinyan/g16/l1.exe "/scratch/tmp/Gau-12204.inp" -scrdir="/scratch/tmp/"
 Entering Link 1 = /home/xinyan/g16/l1.exe PID=     12205.
  
 Copyright (c) 1988,1990,1992,1993,1995,1998,2003,2009,2016,
            Gaussian, Inc.  All Rights Reserved.
  
 This is part of the Gaussian(R) 16 program.  It is based on
 the Gaussian(R) 09 system (copyright 2009, Gaussian, Inc.),
 the Gaussian(R) 03 system (copyright 2003, Gaussian, Inc.),
 the Gaussian(R) 98 system (copyright 1998, Gaussian, Inc.),
 the Gaussian(R) 94 system (copyright 1995, Gaussian, Inc.),
 the Gaussian 92(TM) system (copyright 1992, Gaussian, Inc.),
 the Gaussian 90(TM) system (copyright 1990, Gaussian, Inc.),
 the Gaussian 88(TM) system (copyright 1988, Gaussian, Inc.),
 the Gaussian 86(TM) system (copyright 1986, Carnegie Mellon
 University), and the Gaussian 82(TM) system (copyright 1983,
 Carnegie Mellon University). Gaussian is a federally registered
 trademark of Gaussian, Inc.
  
 This software contains proprietary and confidential information,
 including trade secrets, belonging to Gaussian, Inc.
  
 This software is provided under written license and may be
 used, copied, transmitted, or stored only in accord with that
 written license.
  
 The following legend is applicable only to US Government
 contracts under FAR:
  
                    RESTRICTED RIGHTS LEGEND
  
 Use, reproduction and disclosure by the US Government is
 subject to restrictions as set forth in subparagraphs (a)
 and (c) of the Commercial Computer Software - Restricted
 Rights clause in FAR 52.227-19.
  
 Gaussian, Inc.
 340 Quinnipiac St., Bldg. 40, Wallingford CT 06492
  
  
 ---------------------------------------------------------------
 Warning -- This program may not be used in any manner that
 competes with the business of Gaussian, Inc. or will provide
 assistance to any competitor of Gaussian, Inc.  The licensee
 of this program is prohibited from giving any competitor of
 Gaussian, Inc. access to this program.  By using this program,
 the user acknowledges that Gaussian, Inc. is engaged in the
 business of creating and licensing software in the field of
 computational chemistry and represents and warrants to the
 licensee that it is not a competitor of Gaussian, Inc. and that
 it will not use this program in any manner prohibited above.
 ---------------------------------------------------------------
  

 Cite this work as:
 Gaussian 16, Revision A.03,
 M. J. Frisch, G. W. Trucks, H. B. Schlegel, G. E. Scuseria, 
 M. A. Robb, J. R. Cheeseman, G. Scalmani, V. Barone, 
 G. A. Petersson, H. Nakatsuji, X. Li, M. Caricato, A. V. Marenich, 
 J. Bloino, B. G. Janesko, R. Gomperts, B. Mennucci, H. P. Hratchian, 
 J. V. Ortiz, A. F. Izmaylov, J. L. Sonnenberg, D. Williams-Young, 
 F. Ding, F. Lipparini, F. Egidi, J. Goings, B. Peng, A. Petrone, 
 T. Henderson, D. Ranasinghe, V. G. Zakrzewski, J. Gao, N. Rega, 
 G. Zheng, W. Liang, M. Hada, M. Ehara, K. Toyota, R. Fukuda, 
 J. Hasegawa, M. Ishida, T. Nakajima, Y. Honda, O. Kitao, H. Nakai, 
 T. Vreven, K. Throssell, J. A. Montgomery, Jr., J. E. Peralta, 
 F. Ogliaro, M. J. Bearpark, J. J. Heyd, E. N. Brothers, K. N. Kudin, 
 V. N. Staroverov, T. A. Keith, R. Kobayashi, J. Normand, 
 K. Raghavachari, A. P. Rendell, J. C. Burant, S. S. Iyengar, 
 J. Tomasi, M. Cossi, J. M. Millam, M. Klene, C. Adamo, R. Cammi, 
 J. W. Ochterski, R. L. Martin, K. Morokuma, O. Farkas, 
 J. B. Foresman, and D. J. Fox, Gaussian, Inc., Wallingford CT, 2016.
 
 ******************************************
 Gaussian 16:  ES64L-G16RevA.03 25-Dec-2016
                22-Jan-2019 
 ******************************************
 %nproc=5
 Will use up to    5 processors via shared memory.
 -------------------------------------------
 # M062X/6-311G** force nosymm int=ultrafine
 -------------------------------------------
 1/10=7,30=1,38=1/1,3;
 2/12=2,15=1,17=6,18=5,40=1/2;
 3/5=4,6=6,7=101,11=2,25=1,30=1,71=1,74=-55,75=-5/1,2,3;
 4//1;
 5/5=2,38=5/2;
 6/7=2,8=2,9=2,10=2,28=1/1;
 7/29=1,30=1/1,2,3,16;
 1/10=7,30=1/3;
 99//99;
 -----
 Title
 -----
 Symbolic Z-matrix:
 Charge = -1 Multiplicity = 1
 C                     0.69675   0.00028   0.00122 
 H                     0.85254  -0.86455   0.62046 
 H                     0.85229   0.96898   0.44069 
 H                     0.85281  -0.1034   -1.0573 
 Cl                    3.22901  -0.00007  -0.00028 
 Br                   -1.56939  -0.00003  -0.00011 
 

 GradGradGradGradGradGradGradGradGradGradGradGradGradGradGradGradGradGrad
 Berny optimization.
 Initialization pass.
 Trust Radius=3.00D-01 FncErr=1.00D-07 GrdErr=1.00D-07 EigMax=2.50D+02 EigMin=1.00D-04
 Number of steps in this run=      2 maximum allowed number of steps=      2.
 GradGradGradGradGradGradGradGradGradGradGradGradGradGradGradGradGradGrad

                          Input orientation:                          
 ---------------------------------------------------------------------
 Center     Atomic      Atomic             Coordinates (Angstroms)
 Number     Number       Type             X           Y           Z
 ---------------------------------------------------------------------
      1          6           0        0.696750    0.000280    0.001220
      2          1           0        0.852540   -0.864550    0.620460
      3          1           0        0.852290    0.968980    0.440690
      4          1           0        0.852810   -0.103400   -1.057300
      5         17           0        3.229010   -0.000070   -0.000280
      6         35           0       -1.569390   -0.000030   -0.000110
 ---------------------------------------------------------------------
                    Distance matrix (angstroms):
                    1          2          3          4          5
     1  C    0.000000
     2  H    1.075016   0.000000
     3  H    1.075038   1.842322   0.000000
     4  H    1.074974   1.842343   1.842274   0.000000
     5  Cl   2.532260   2.603892   2.604287   2.602748   0.000000
     6  Br   2.266140   2.645420   2.645339   2.644880   4.798400
                    6
     6  Br   0.000000
 Symmetry turned off by external request.
 This structure is nearly, but not quite of a higher symmetry.
 Consider Symm=Loose if the higher symmetry is desired.
 Stoichiometry    CH3BrCl(1-)
 Framework group  C1[X(CH3BrCl)]
 Deg. of freedom    12
 Full point group                 C1      NOp   1
 Rotational constants (GHZ):         147.7412320           0.8886394           0.8886392
 Standard basis: 6-311G(d,p) (5D, 7F)
   106 basis functions,   195 primitive gaussians,   111 cartesian basis functions
    31 alpha electrons       31 beta electrons
       nuclear repulsion energy       177.0643775591 Hartrees.
 NAtoms=    6 NActive=    6 NUniq=    6 SFac= 1.00D+00 NAtFMM=   60 NAOKFM=F Big=F
 Integral buffers will be    131072 words long.
 Raffenetti 2 integral format.
 Two-electron integral symmetry is turned off.
 One-electron integrals computed using PRISM.
 NBasis=   106 RedAO= T EigKep=  1.08D-02  NBF=   106
 NBsUse=   106 1.00D-06 EigRej= -1.00D+00 NBFU=   106
 ExpMin= 1.03D-01 ExpMax= 4.40D+05 ExpMxC= 1.51D+04 IAcc=3 IRadAn=         5 AccDes= 0.00D+00
 Harris functional with IExCor= 1009 and IRadAn=       5 diagonalized for initial guess.
 HarFok:  IExCor= 1009 AccDes= 0.00D+00 IRadAn=         5 IDoV= 1 UseB2=F ITyADJ=14
 ICtDFT=  3500011 ScaDFX=  1.000000  1.000000  1.000000  1.000000
 FoFCou: FMM=F IPFlag=           0 FMFlag=      100000 FMFlg1=           0
         NFxFlg=           0 DoJE=T BraDBF=F KetDBF=T FulRan=T
         wScrn=  0.000000 ICntrl=       500 IOpCl=  0 I1Cent=   200000004 NGrid=           0
         NMat0=    1 NMatS0=      1 NMatT0=    0 NMatD0=    1 NMtDS0=    0 NMtDT0=    0
 Symmetry not used in FoFCou.
 Keep R1 ints in memory in canonical form, NReq=20756204.
 Requested convergence on RMS density matrix=1.00D-08 within 128 cycles.
 Requested convergence on MAX density matrix=1.00D-06.
 Requested convergence on             energy=1.00D-06.
 No special actions if energy rises.
 Integral accuracy reduced to 1.0D-05 until final iterations.
 Initial convergence to 1.0D-05 achieved.  Increase integral accuracy.
 SCF Done:  E(RM062X) =  -3074.34085347     A.U. after   14 cycles
            NFock= 14  Conv=0.86D-08     -V/T= 2.0014

 **********************************************************************

            Population analysis using the SCF density.

 **********************************************************************

 Alpha  occ. eigenvalues -- -485.14515-102.39722 -63.13725 -56.96408 -56.96247
 Alpha  occ. eigenvalues --  -56.96247 -10.45595  -9.53908  -8.82360  -7.26089
 Alpha  occ. eigenvalues --   -7.25952  -7.25952  -6.64893  -6.64266  -6.64266
 Alpha  occ. eigenvalues --   -2.68045  -2.67842  -2.67842  -2.67287  -2.67287
 Alpha  occ. eigenvalues --   -0.70039  -0.63994  -0.59965  -0.36709  -0.36707
 Alpha  occ. eigenvalues --   -0.24353  -0.17806  -0.17805  -0.13568  -0.13568
 Alpha  occ. eigenvalues --   -0.12628
 Alpha virt. eigenvalues --    0.15202   0.22892   0.28928   0.28934   0.45388
 Alpha virt. eigenvalues --    0.46509   0.46510   0.49427   0.49429   0.50219
 Alpha virt. eigenvalues --    0.54766   0.54771   0.62463   0.67231   0.76535
 Alpha virt. eigenvalues --    0.76540   0.79455   0.85803   0.85806   0.87964
 Alpha virt. eigenvalues --    0.87969   0.88304   0.99513   1.14991   1.20004
 Alpha virt. eigenvalues --    1.20006   1.20168   1.20168   1.28440   1.28446
 Alpha virt. eigenvalues --    1.38438   1.59379   1.63636   1.63644   1.70016
 Alpha virt. eigenvalues --    1.92646   1.92648   2.01379   2.11071   2.11073
 Alpha virt. eigenvalues --    2.20616   2.20621   2.27024   2.41056   2.41059
 Alpha virt. eigenvalues --    2.50437   2.60663   2.60666   2.63325   2.77092
 Alpha virt. eigenvalues --    2.77093   3.02745   3.15355   3.88991   3.89000
 Alpha virt. eigenvalues --    4.46720   4.46721   4.51742   4.51746   4.73152
 Alpha virt. eigenvalues --    6.71336   7.73259   7.73260   7.83204   9.88630
 Alpha virt. eigenvalues --   24.08621  25.76517  25.76521  26.03055  48.29205
 Alpha virt. eigenvalues --  215.93051 290.88473 290.88473 290.993501020.78198
          Condensed to atoms (all electrons):
               1          2          3          4          5          6
     1  C    4.977442   0.414546   0.414525   0.414634   0.025195   0.103880
     2  H    0.414546   0.490693  -0.015989  -0.015952  -0.031879  -0.044255
     3  H    0.414525  -0.015989   0.490739  -0.015965  -0.031854  -0.044256
     4  H    0.414634  -0.015952  -0.015965   0.490637  -0.031978  -0.044340
     5  Cl   0.025195  -0.031879  -0.031854  -0.031978  17.846973   0.015471
     6  Br   0.103880  -0.044255  -0.044256  -0.044340   0.015471  35.479945
 Mulliken charges:
               1
     1  C   -0.350222
     2  H    0.202836
     3  H    0.202800
     4  H    0.202962
     5  Cl  -0.791929
     6  Br  -0.466446
 Sum of Mulliken charges =  -1.00000
 Mulliken charges with hydrogens summed into heavy atoms:
               1
     1  C    0.258375
     5  Cl  -0.791929
     6  Br  -0.466446
 Electronic spatial extent (au):  <R**2>=           1102.6609
 Charge=             -1.0000 electrons
 Dipole moment (field-independent basis, Debye):
    X=             -7.4757    Y=              0.0008    Z=              0.0029  Tot=              7.4757
 Quadrupole moment (field-independent basis, Debye-Ang):
   XX=            -90.8150   YY=            -43.0536   ZZ=            -43.0529
   XY=              0.0008   XZ=              0.0046   YZ=             -0.0004
 Traceless Quadrupole moment (field-independent basis, Debye-Ang):
   XX=            -31.8412   YY=             15.9202   ZZ=             15.9209
   XY=              0.0008   XZ=              0.0046   YZ=             -0.0004
 Octapole moment (field-independent basis, Debye-Ang**2):
  XXX=           -205.9358  YYY=              0.3235  ZZZ=             -1.0753  XYY=            -23.7206
  XXY=              0.0010  XXZ=              0.0035  XZZ=            -23.7202  YZZ=             -0.3236
  YYZ=              1.0711  XYZ=             -0.0001
 Hexadecapole moment (field-independent basis, Debye-Ang**3):
 XXXX=          -1821.1095 YYYY=            -63.4006 ZZZZ=            -63.4032 XXXY=              0.0086
 XXXZ=              0.0432 YYYX=              0.2877 YYYZ=              0.0009 ZZZX=             -0.9238
 ZZZY=             -0.0022 XXYY=           -243.9963 XXZZ=           -243.9944 YYZZ=            -21.1308
 XXYZ=             -0.0015 YYXZ=              0.9462 ZZXY=             -0.2827
 N-N= 1.770643775591D+02 E-N=-7.707497711335D+03  KE= 3.070159158297D+03
 Calling FoFJK, ICntrl=      2127 FMM=F ISym2X=0 I1Cent= 0 IOpClX= 0 NMat=1 NMatS=1 NMatT=0.
 -------------------------------------------------------------------
 Center     Atomic                   Forces (Hartrees/Bohr)
 Number     Number              X              Y              Z
 -------------------------------------------------------------------
      1        6          -0.018512485    0.000015344   -0.000021363
      2        1          -0.000303078    0.000301710   -0.000209390
      3        1          -0.000302213   -0.000331206   -0.000153965
      4        1          -0.000294429    0.000035544    0.000373694
      5       17           0.009796623   -0.000011250    0.000000594
      6       35           0.009615582   -0.000010142    0.000010429
 -------------------------------------------------------------------
 Cartesian Forces:  Max     0.018512485 RMS     0.005435610

 GradGradGradGradGradGradGradGradGradGradGradGradGradGradGradGradGradGrad
 Berny optimization.
 Search for a local minimum.
 Step number   1 out of a maximum of    2
 All quantities printed in internal units (Hartrees-Bohrs-Radians)
 Second derivative matrix not updated -- first step.
 The second derivative matrix:
                          X1        Y1        Z1        X2        Y2
           X1           0.29574
           Y1          -0.00008   0.71759
           Z1          -0.00007  -0.00003   0.71764
           X2          -0.07253   0.03581  -0.02564   0.05611
           Y2           0.03495  -0.27410   0.11939  -0.03691   0.26234
           Z2          -0.02502   0.11939  -0.19284   0.02643  -0.13553
           X3          -0.07250  -0.04004  -0.01817   0.00820   0.00624
           Y3          -0.03908  -0.31653  -0.09490  -0.00482  -0.01006
           Z3          -0.01774  -0.09489  -0.15040   0.00773   0.01997
           X4          -0.07255   0.00431   0.04391   0.00821  -0.00429
           Y4           0.00421  -0.10976  -0.02447  -0.00889   0.02003
           Z4           0.04286  -0.02447  -0.35721   0.00208  -0.00259
           X5           0.00000   0.00000   0.00000   0.00000   0.00000
           Y5           0.00000   0.00000   0.00000   0.00000   0.00000
           Z5           0.00000   0.00000   0.00000   0.00000   0.00000
           X6          -0.07816  -0.00001  -0.00004   0.00000   0.00000
           Y6          -0.00001  -0.01719   0.00000   0.01480   0.00179
           Z6          -0.00004   0.00000  -0.01719  -0.01060  -0.00124
                          Z2        X3        Y3        Z3        X4
           Z2           0.17011
           X3           0.00665   0.05608
           Y3          -0.01284   0.04127   0.31051
           Z3           0.02595   0.01873   0.10772   0.12193
           X4          -0.00805   0.00821   0.00264  -0.00872   0.05614
           Y4           0.03021   0.00912   0.01386  -0.03378  -0.00444
           Z4          -0.00415   0.00032  -0.00097   0.00202  -0.04526
           X5           0.00000   0.00000   0.00000   0.00000   0.00000
           Y5           0.00000   0.00000   0.00000   0.00000   0.00000
           Z5           0.00000   0.00000   0.00000   0.00000   0.00000
           X6          -0.00000   0.00001  -0.00000  -0.00000  -0.00001
           Y6          -0.00123  -0.01658   0.00222   0.00097   0.00178
           Z6           0.00093  -0.00752   0.00098   0.00050   0.01812
                          Y4        Z4        X5        Y5        Z5
           Y4           0.07579
           Z4           0.02778   0.35669
           X5           0.00000   0.00000   1.00000
           Y5           0.00000   0.00000   0.00000   1.00000
           Z5           0.00000   0.00000   0.00000   0.00000   1.00000
           X6          -0.00000  -0.00000   0.00000   0.00000   0.00000
           Y6           0.00008   0.00025   0.00000   0.00000   0.00000
           Z6           0.00026   0.00265   0.00000   0.00000   0.00000
                          X6        Y6        Z6
           X6           0.07816
           Y6           0.00001   0.01311
           Z6           0.00004  -0.00000   0.01311
 ITU=  0
     Eigenvalues ---    0.04339   0.04800   0.04800   0.09202   0.09202
     Eigenvalues ---    0.15993   0.15995   0.28268   0.44748   0.73104
     Eigenvalues ---    1.02301   1.02314
 Angle between quadratic step and forces=  53.12 degrees.
 Linear search not attempted -- first point.
 B after Tr=     0.049579   -0.000031    0.000051
         Rot=    1.000000    0.000000   -0.000007   -0.000000 Ang=   0.00 deg.
 Variable       Old X    -DE/DX   Delta X   Delta X   Delta X     New X
                                 (Linear)    (Quad)   (Total)
    X1        1.31667  -0.01851   0.00000  -0.10522  -0.05564   1.26103
    Y1        0.00053   0.00002   0.00000   0.00007   0.00004   0.00057
    Z1        0.00231  -0.00002   0.00000  -0.00009  -0.00005   0.00226
    X2        1.61107  -0.00030   0.00000  -0.09631  -0.04672   1.56435
    Y2       -1.63376   0.00030   0.00000   0.00177   0.00174  -1.63203
    Z2        1.17250  -0.00021   0.00000  -0.00129  -0.00125   1.17124
    X3        1.61059  -0.00030   0.00000  -0.09626  -0.04667   1.56393
    Y3        1.83111  -0.00033   0.00000  -0.00185  -0.00188   1.82923
    Z3        0.83278  -0.00015   0.00000  -0.00092  -0.00089   0.83189
    X4        1.61158  -0.00029   0.00000  -0.09609  -0.04654   1.56504
    Y4       -0.19540   0.00004   0.00000   0.00026   0.00023  -0.19517
    Z4       -1.99801   0.00037   0.00000   0.00204   0.00207  -1.99593
    X5        6.10194   0.00980   0.00000   0.01335   0.06293   6.16487
    Y5       -0.00013  -0.00001   0.00000  -0.00005  -0.00008  -0.00021
    Z5       -0.00053   0.00000   0.00000  -0.00000  -0.00003  -0.00056
    X6       -2.96572   0.00962   0.00000   0.08305   0.13263  -2.83309
    Y6       -0.00006  -0.00001   0.00000  -0.00003  -0.00006  -0.00012
    Z6       -0.00021   0.00001   0.00000   0.00007   0.00016  -0.00005
         Item               Value     Threshold  Converged?
 Maximum Force            0.018512     0.000450     NO 
 RMS     Force            0.005436     0.000300     NO 
 Maximum Displacement     0.132631     0.001800     NO 
 RMS     Displacement     0.041624     0.001200     NO 
 Predicted change in Energy=-4.079143D-04
 GradGradGradGradGradGradGradGradGradGradGradGradGradGradGradGradGradGrad

 1\1\GINC-FS\Force\RM062X\6-311G(d,p)\C1H3Br1Cl1(1-)\XINYAN\22-Jan-2019
 \0\\# M062X/6-311G** force nosymm int=ultrafine\\Title\\-1,1\C,0.69675
 ,0.00028,0.00122\H,0.85254,-0.86455,0.62046\H,0.85229,0.96898,0.44069\
 H,0.85281,-0.1034,-1.0573\Cl,3.22901,-0.00007,-0.00028\Br,-1.56939,-0.
 00003,-0.00011\\Version=ES64L-G16RevA.03\HF=-3074.3408535\RMSD=8.552e-
 09\RMSF=5.436e-03\Dipole=-2.7335202,0.0003423,0.0012268\Quadrupole=-23
 .6731379,11.8363054,11.8368325,0.0005576,0.0034549,-0.000266\PG=C01 [X
 (C1H3Br1Cl1)]\\@


0EVERYBODY IS IGNORANT, ONLY ON DIFFERENT SUBJECTS.
0          WILL ROGERS
 Job cpu time:       0 days  0 hours  0 minutes 54.1 seconds.
 Elapsed time:       0 days  0 hours  0 minutes 11.4 seconds.
 File lengths (MBytes):  RWF=     10 Int=      0 D2E=      0 Chk=      2 Scr=      1
 Normal termination of Gaussian 16 at Tue Jan 22 16:49:51 2019.
