 Entering Gaussian System, Link 0=g16
 Input=CH3BrCl-19.gjf
 Output=CH3BrCl-19.log
 Initial command:
 /home/xinyan/g16/l1.exe "/scratch/tmp/Gau-13017.inp" -scrdir="/scratch/tmp/"
 Entering Link 1 = /home/xinyan/g16/l1.exe PID=     13018.
  
 Copyright (c) 1988,1990,1992,1993,1995,1998,2003,2009,2016,
            Gaussian, Inc.  All Rights Reserved.
  
 This is part of the Gaussian(R) 16 program.  It is based on
 the Gaussian(R) 09 system (copyright 2009, Gaussian, Inc.),
 the Gaussian(R) 03 system (copyright 2003, Gaussian, Inc.),
 the Gaussian(R) 98 system (copyright 1998, Gaussian, Inc.),
 the Gaussian(R) 94 system (copyright 1995, Gaussian, Inc.),
 the Gaussian 92(TM) system (copyright 1992, Gaussian, Inc.),
 the Gaussian 90(TM) system (copyright 1990, Gaussian, Inc.),
 the Gaussian 88(TM) system (copyright 1988, Gaussian, Inc.),
 the Gaussian 86(TM) system (copyright 1986, Carnegie Mellon
 University), and the Gaussian 82(TM) system (copyright 1983,
 Carnegie Mellon University). Gaussian is a federally registered
 trademark of Gaussian, Inc.
  
 This software contains proprietary and confidential information,
 including trade secrets, belonging to Gaussian, Inc.
  
 This software is provided under written license and may be
 used, copied, transmitted, or stored only in accord with that
 written license.
  
 The following legend is applicable only to US Government
 contracts under FAR:
  
                    RESTRICTED RIGHTS LEGEND
  
 Use, reproduction and disclosure by the US Government is
 subject to restrictions as set forth in subparagraphs (a)
 and (c) of the Commercial Computer Software - Restricted
 Rights clause in FAR 52.227-19.
  
 Gaussian, Inc.
 340 Quinnipiac St., Bldg. 40, Wallingford CT 06492
  
  
 ---------------------------------------------------------------
 Warning -- This program may not be used in any manner that
 competes with the business of Gaussian, Inc. or will provide
 assistance to any competitor of Gaussian, Inc.  The licensee
 of this program is prohibited from giving any competitor of
 Gaussian, Inc. access to this program.  By using this program,
 the user acknowledges that Gaussian, Inc. is engaged in the
 business of creating and licensing software in the field of
 computational chemistry and represents and warrants to the
 licensee that it is not a competitor of Gaussian, Inc. and that
 it will not use this program in any manner prohibited above.
 ---------------------------------------------------------------
  

 Cite this work as:
 Gaussian 16, Revision A.03,
 M. J. Frisch, G. W. Trucks, H. B. Schlegel, G. E. Scuseria, 
 M. A. Robb, J. R. Cheeseman, G. Scalmani, V. Barone, 
 G. A. Petersson, H. Nakatsuji, X. Li, M. Caricato, A. V. Marenich, 
 J. Bloino, B. G. Janesko, R. Gomperts, B. Mennucci, H. P. Hratchian, 
 J. V. Ortiz, A. F. Izmaylov, J. L. Sonnenberg, D. Williams-Young, 
 F. Ding, F. Lipparini, F. Egidi, J. Goings, B. Peng, A. Petrone, 
 T. Henderson, D. Ranasinghe, V. G. Zakrzewski, J. Gao, N. Rega, 
 G. Zheng, W. Liang, M. Hada, M. Ehara, K. Toyota, R. Fukuda, 
 J. Hasegawa, M. Ishida, T. Nakajima, Y. Honda, O. Kitao, H. Nakai, 
 T. Vreven, K. Throssell, J. A. Montgomery, Jr., J. E. Peralta, 
 F. Ogliaro, M. J. Bearpark, J. J. Heyd, E. N. Brothers, K. N. Kudin, 
 V. N. Staroverov, T. A. Keith, R. Kobayashi, J. Normand, 
 K. Raghavachari, A. P. Rendell, J. C. Burant, S. S. Iyengar, 
 J. Tomasi, M. Cossi, J. M. Millam, M. Klene, C. Adamo, R. Cammi, 
 J. W. Ochterski, R. L. Martin, K. Morokuma, O. Farkas, 
 J. B. Foresman, and D. J. Fox, Gaussian, Inc., Wallingford CT, 2016.
 
 ******************************************
 Gaussian 16:  ES64L-G16RevA.03 25-Dec-2016
                22-Jan-2019 
 ******************************************
 %nproc=5
 Will use up to    5 processors via shared memory.
 -------------------------------------------
 # M062X/6-311G** force nosymm int=ultrafine
 -------------------------------------------
 1/10=7,30=1,38=1/1,3;
 2/12=2,15=1,17=6,18=5,40=1/2;
 3/5=4,6=6,7=101,11=2,25=1,30=1,71=1,74=-55,75=-5/1,2,3;
 4//1;
 5/5=2,38=5/2;
 6/7=2,8=2,9=2,10=2,28=1/1;
 7/29=1,30=1/1,2,3,16;
 1/10=7,30=1/3;
 99//99;
 -----
 Title
 -----
 Symbolic Z-matrix:
 Charge = -1 Multiplicity = 1
 C                     0.42643   0.00056   0.00141 
 H                     0.75311  -0.83796   0.60346 
 H                     0.75248   0.94125   0.42699 
 H                     0.75385  -0.10118  -1.0255 
 Cl                    3.31285  -0.00013  -0.0004 
 Br                   -1.56163  -0.00005  -0.0001 
 

 GradGradGradGradGradGradGradGradGradGradGradGradGradGradGradGradGradGrad
 Berny optimization.
 Initialization pass.
 Trust Radius=3.00D-01 FncErr=1.00D-07 GrdErr=1.00D-07 EigMax=2.50D+02 EigMin=1.00D-04
 Number of steps in this run=      2 maximum allowed number of steps=      2.
 GradGradGradGradGradGradGradGradGradGradGradGradGradGradGradGradGradGrad

                          Input orientation:                          
 ---------------------------------------------------------------------
 Center     Atomic      Atomic             Coordinates (Angstroms)
 Number     Number       Type             X           Y           Z
 ---------------------------------------------------------------------
      1          6           0        0.426430    0.000560    0.001410
      2          1           0        0.753110   -0.837960    0.603460
      3          1           0        0.752480    0.941250    0.426990
      4          1           0        0.753850   -0.101180   -1.025500
      5         17           0        3.312850   -0.000130   -0.000400
      6         35           0       -1.561630   -0.000050   -0.000100
 ---------------------------------------------------------------------
                    Distance matrix (angstroms):
                    1          2          3          4          5
     1  C    0.000000
     2  H    1.082728   0.000000
     3  H    1.082739   1.787940   0.000000
     4  H    1.082635   1.787836   1.787845   0.000000
     5  Cl   2.886421   2.760231   2.761223   2.758536   0.000000
     6  Br   1.988061   2.534640   2.534474   2.534388   4.874480
                    6
     6  Br   0.000000
 Symmetry turned off by external request.
 This structure is nearly, but not quite of a higher symmetry.
 Consider Symm=Loose if the higher symmetry is desired.
 Stoichiometry    CH3BrCl(1-)
 Framework group  C1[X(CH3BrCl)]
 Deg. of freedom    12
 Full point group                 C1      NOp   1
 Rotational constants (GHZ):         156.8746310           0.8687260           0.8687257
 Standard basis: 6-311G(d,p) (5D, 7F)
   106 basis functions,   195 primitive gaussians,   111 cartesian basis functions
    31 alpha electrons       31 beta electrons
       nuclear repulsion energy       180.5777001665 Hartrees.
 NAtoms=    6 NActive=    6 NUniq=    6 SFac= 1.00D+00 NAtFMM=   60 NAOKFM=F Big=F
 Integral buffers will be    131072 words long.
 Raffenetti 2 integral format.
 Two-electron integral symmetry is turned off.
 One-electron integrals computed using PRISM.
 NBasis=   106 RedAO= T EigKep=  9.95D-03  NBF=   106
 NBsUse=   106 1.00D-06 EigRej= -1.00D+00 NBFU=   106
 ExpMin= 1.03D-01 ExpMax= 4.40D+05 ExpMxC= 1.51D+04 IAcc=3 IRadAn=         5 AccDes= 0.00D+00
 Harris functional with IExCor= 1009 and IRadAn=       5 diagonalized for initial guess.
 HarFok:  IExCor= 1009 AccDes= 0.00D+00 IRadAn=         5 IDoV= 1 UseB2=F ITyADJ=14
 ICtDFT=  3500011 ScaDFX=  1.000000  1.000000  1.000000  1.000000
 FoFCou: FMM=F IPFlag=           0 FMFlag=      100000 FMFlg1=           0
         NFxFlg=           0 DoJE=T BraDBF=F KetDBF=T FulRan=T
         wScrn=  0.000000 ICntrl=       500 IOpCl=  0 I1Cent=   200000004 NGrid=           0
         NMat0=    1 NMatS0=      1 NMatT0=    0 NMatD0=    1 NMtDS0=    0 NMtDT0=    0
 Symmetry not used in FoFCou.
 Keep R1 ints in memory in canonical form, NReq=20756204.
 Requested convergence on RMS density matrix=1.00D-08 within 128 cycles.
 Requested convergence on MAX density matrix=1.00D-06.
 Requested convergence on             energy=1.00D-06.
 No special actions if energy rises.
 Integral accuracy reduced to 1.0D-05 until final iterations.
 Initial convergence to 1.0D-05 achieved.  Increase integral accuracy.
 SCF Done:  E(RM062X) =  -3074.35078096     A.U. after   13 cycles
            NFock= 13  Conv=0.44D-08     -V/T= 2.0013

 **********************************************************************

            Population analysis using the SCF density.

 **********************************************************************

 Alpha  occ. eigenvalues -- -485.18677-102.36307 -63.17905 -57.00619 -57.00408
 Alpha  occ. eigenvalues --  -57.00408 -10.44069  -9.50491  -8.86602  -7.22606
 Alpha  occ. eigenvalues --   -7.22584  -7.22584  -6.69282  -6.68436  -6.68436
 Alpha  occ. eigenvalues --   -2.72437  -2.72145  -2.72145  -2.71396  -2.71396
 Alpha  occ. eigenvalues --   -0.75213  -0.61717  -0.58771  -0.35967  -0.35967
 Alpha  occ. eigenvalues --   -0.29707  -0.20590  -0.20590  -0.10602  -0.10601
 Alpha  occ. eigenvalues --   -0.10482
 Alpha virt. eigenvalues --    0.17732   0.23990   0.28868   0.28877   0.44147
 Alpha virt. eigenvalues --    0.45898   0.45900   0.47059   0.47061   0.55229
 Alpha virt. eigenvalues --    0.56747   0.56756   0.56778   0.68799   0.76314
 Alpha virt. eigenvalues --    0.76322   0.77962   0.81920   0.81921   0.85647
 Alpha virt. eigenvalues --    0.85651   0.92061   1.02247   1.10162   1.23231
 Alpha virt. eigenvalues --    1.23232   1.23677   1.23679   1.29629   1.29635
 Alpha virt. eigenvalues --    1.33445   1.63049   1.66103   1.66106   1.84527
 Alpha virt. eigenvalues --    1.85665   1.85667   2.08601   2.09606   2.09610
 Alpha virt. eigenvalues --    2.27829   2.31052   2.31055   2.43760   2.43764
 Alpha virt. eigenvalues --    2.49674   2.56411   2.59935   2.59938   2.69692
 Alpha virt. eigenvalues --    2.69705   3.10541   3.18816   3.89845   3.89857
 Alpha virt. eigenvalues --    4.42969   4.42970   4.53080   4.53082   4.81290
 Alpha virt. eigenvalues --    6.70998   7.70217   7.70218   7.80517   9.89095
 Alpha virt. eigenvalues --   24.09096  25.79096  25.79104  25.97628  48.27624
 Alpha virt. eigenvalues --  215.92767 290.84946 290.84946 290.981951020.77125
          Condensed to atoms (all electrons):
               1          2          3          4          5          6
     1  C    5.041596   0.409953   0.409942   0.410005  -0.015312   0.146104
     2  H    0.409953   0.491317  -0.018102  -0.018075  -0.008648  -0.050834
     3  H    0.409942  -0.018102   0.491416  -0.018083  -0.008636  -0.050850
     4  H    0.410005  -0.018075  -0.018083   0.491163  -0.008686  -0.050871
     5  Cl  -0.015312  -0.008648  -0.008636  -0.008686  17.954128   0.009272
     6  Br   0.146104  -0.050834  -0.050850  -0.050871   0.009272  35.256025
 Mulliken charges:
               1
     1  C   -0.402288
     2  H    0.194389
     3  H    0.194313
     4  H    0.194549
     5  Cl  -0.922118
     6  Br  -0.258845
 Sum of Mulliken charges =  -1.00000
 Mulliken charges with hydrogens summed into heavy atoms:
               1
     1  C    0.180963
     5  Cl  -0.922118
     6  Br  -0.258845
 Electronic spatial extent (au):  <R**2>=           1128.1369
 Charge=             -1.0000 electrons
 Dipole moment (field-independent basis, Debye):
    X=            -11.2840    Y=              0.0013    Z=              0.0033  Tot=             11.2840
 Quadrupole moment (field-independent basis, Debye-Ang):
   XX=            -96.4403   YY=            -43.0231   ZZ=            -43.0227
   XY=              0.0021   XZ=              0.0076   YZ=             -0.0002
 Traceless Quadrupole moment (field-independent basis, Debye-Ang):
   XX=            -35.6116   YY=             17.8056   ZZ=             17.8060
   XY=              0.0021   XZ=              0.0076   YZ=             -0.0002
 Octapole moment (field-independent basis, Debye-Ang**2):
  XXX=           -249.8059  YYY=              0.2766  ZZZ=             -0.9150  XYY=            -26.5405
  XXY=              0.0023  XXZ=              0.0108  XZZ=            -26.5391  YZZ=             -0.2793
  YYZ=              0.9106  XYZ=             -0.0005
 Hexadecapole moment (field-independent basis, Debye-Ang**3):
 XXXX=          -1986.1687 YYYY=            -63.0383 ZZZZ=            -63.0421 XXXY=              0.0329
 XXXZ=              0.1155 YYYX=              0.2221 YYYZ=              0.0020 ZZZX=             -0.6433
 ZZZY=             -0.0024 XXYY=           -253.2245 XXZZ=           -253.2209 YYZZ=            -21.0100
 XXYZ=             -0.0017 YYXZ=              0.7032 ZZXY=             -0.2064
 N-N= 1.805777001665D+02 E-N=-7.713720488735D+03  KE= 3.070222405293D+03
 Calling FoFJK, ICntrl=      2127 FMM=F ISym2X=0 I1Cent= 0 IOpClX= 0 NMat=1 NMatS=1 NMatT=0.
 -------------------------------------------------------------------
 Center     Atomic                   Forces (Hartrees/Bohr)
 Number     Number              X              Y              Z
 -------------------------------------------------------------------
      1        6           0.001637954    0.000013984    0.000043160
      2        1          -0.001123516    0.000976003   -0.000696186
      3        1          -0.001124342   -0.001086107   -0.000501766
      4        1          -0.001109913    0.000109774    0.001153062
      5       17           0.006447574   -0.000006325   -0.000012020
      6       35          -0.004727757   -0.000007330    0.000013750
 -------------------------------------------------------------------
 Cartesian Forces:  Max     0.006447574 RMS     0.002035475

 GradGradGradGradGradGradGradGradGradGradGradGradGradGradGradGradGradGrad
 Berny optimization.
 Search for a local minimum.
 Step number   1 out of a maximum of    2
 All quantities printed in internal units (Hartrees-Bohrs-Radians)
 Second derivative matrix not updated -- first step.
 The second derivative matrix:
                          X1        Y1        Z1        X2        Y2
           X1           0.44210
           Y1          -0.00011   0.64069
           Z1          -0.00015  -0.00000   0.64076
           X2          -0.09887   0.07728  -0.05547   0.08275
           Y2           0.06628  -0.24359   0.11555  -0.07042   0.23779
           Z2          -0.04758   0.11555  -0.16564   0.05055  -0.12735
           X3          -0.09876  -0.08654  -0.03915   0.00804   0.01075
           Y3          -0.07420  -0.28520  -0.09163  -0.00844  -0.01193
           Z3          -0.03357  -0.09163  -0.12412   0.01249   0.01815
           X4          -0.09902   0.00941   0.09486   0.00807  -0.00660
           Y4           0.00807  -0.08505  -0.02391  -0.01458   0.01351
           Z4           0.08139  -0.02392  -0.32416   0.00402  -0.00344
           X5           0.00000   0.00000   0.00000   0.00000   0.00000
           Y5           0.00000   0.00000   0.00000   0.00000   0.00000
           Z5           0.00000   0.00000   0.00000   0.00000   0.00000
           X6          -0.14546  -0.00004  -0.00009   0.00000   0.00000
           Y6          -0.00003  -0.02684   0.00000   0.01616   0.00423
           Z6          -0.00009   0.00000  -0.02684  -0.01160  -0.00289
                          Z2        X3        Y3        Z3        X4
           Z2           0.15186
           X3           0.01060   0.08264
           Y3          -0.01204   0.07884   0.28364
           Z3           0.01849   0.03567   0.10099   0.10611
           X4          -0.01358   0.00806   0.00381  -0.01459   0.08290
           Y4           0.02672   0.01508   0.00824  -0.02978  -0.00857
           Z4          -0.00698   0.00108   0.00040  -0.00170  -0.08647
           X5           0.00000   0.00000   0.00000   0.00000   0.00000
           Y5           0.00000   0.00000   0.00000   0.00000   0.00000
           Z5           0.00000   0.00000   0.00000   0.00000   0.00000
           X6          -0.00000   0.00001  -0.00000  -0.00000  -0.00002
           Y6          -0.00288  -0.01813   0.00525   0.00228   0.00196
           Z6           0.00226  -0.00820   0.00229   0.00122   0.01979
                          Y4        Z4        X5        Y5        Z5
           Y4           0.06304
           Z4           0.02637   0.32659
           X5           0.00000   0.00000   1.00000
           Y5           0.00000   0.00000   0.00000   1.00000
           Z5           0.00000   0.00000   0.00000   0.00000   1.00000
           X6          -0.00000  -0.00000   0.00000   0.00000   0.00000
           Y6           0.00026   0.00060   0.00000   0.00000   0.00000
           Z6           0.00060   0.00625   0.00000   0.00000   0.00000
                          X6        Y6        Z6
           X6           0.14546
           Y6           0.00004   0.01710
           Z6           0.00010  -0.00000   0.01710
 ITU=  0
     Eigenvalues ---    0.05179   0.05179   0.06593   0.08217   0.08217
     Eigenvalues ---    0.13715   0.13716   0.25918   0.63570   0.73894
     Eigenvalues ---    0.93957   0.93972
 Angle between quadratic step and forces=  11.43 degrees.
 Linear search not attempted -- first point.
 B after Tr=    -0.000403   -0.000025    0.000016
         Rot=    1.000000    0.000000   -0.000002   -0.000000 Ang=   0.00 deg.
 Variable       Old X    -DE/DX   Delta X   Delta X   Delta X     New X
                                 (Linear)    (Quad)   (Total)
    X1        0.80584   0.00164   0.00000   0.00259   0.00219   0.80802
    Y1        0.00106   0.00001   0.00000   0.00006   0.00003   0.00109
    Z1        0.00266   0.00004   0.00000   0.00001   0.00002   0.00269
    X2        1.42317  -0.00112   0.00000  -0.00074  -0.00113   1.42204
    Y2       -1.58351   0.00098   0.00000   0.00232   0.00229  -1.58122
    Z2        1.14037  -0.00070   0.00000  -0.00164  -0.00163   1.13875
    X3        1.42198  -0.00112   0.00000  -0.00075  -0.00115   1.42083
    Y3        1.77870  -0.00109   0.00000  -0.00249  -0.00251   1.77620
    Z3        0.80689  -0.00050   0.00000  -0.00115  -0.00114   0.80575
    X4        1.42457  -0.00111   0.00000  -0.00063  -0.00105   1.42352
    Y4       -0.19120   0.00011   0.00000   0.00032   0.00029  -0.19091
    Z4       -1.93791   0.00115   0.00000   0.00270   0.00271  -1.93520
    X5        6.26038   0.00645   0.00000   0.00879   0.00838   6.26876
    Y5       -0.00025  -0.00001   0.00000  -0.00003  -0.00006  -0.00030
    Z5       -0.00076  -0.00001   0.00000   0.00000  -0.00001  -0.00076
    X6       -2.95105  -0.00473   0.00000  -0.00684  -0.00724  -2.95829
    Y6       -0.00009  -0.00001   0.00000  -0.00003  -0.00005  -0.00015
    Z6       -0.00019   0.00001   0.00000   0.00001   0.00004  -0.00015
         Item               Value     Threshold  Converged?
 Maximum Force            0.006448     0.000450     NO 
 RMS     Force            0.002035     0.000300     NO 
 Maximum Displacement     0.008384     0.001800     NO 
 RMS     Displacement     0.002927     0.001200     NO 
 Predicted change in Energy=-5.617648D-05
 GradGradGradGradGradGradGradGradGradGradGradGradGradGradGradGradGradGrad

 1\1\GINC-FS\Force\RM062X\6-311G(d,p)\C1H3Br1Cl1(1-)\XINYAN\22-Jan-2019
 \0\\# M062X/6-311G** force nosymm int=ultrafine\\Title\\-1,1\C,0.42643
 ,0.00056,0.00141\H,0.75311,-0.83796,0.60346\H,0.75248,0.94125,0.42699\
 H,0.75385,-0.10118,-1.0255\Cl,3.31285,-0.00013,-0.0004\Br,-1.56163,-0.
 00005,-0.0001\\Version=ES64L-G16RevA.03\HF=-3074.350781\RMSD=4.385e-09
 \RMSF=2.035e-03\Dipole=-4.2387285,0.0005606,0.0014007\Quadrupole=-26.4
 763587,13.2380294,13.2383293,0.0015587,0.0056159,-0.0001424\PG=C01 [X(
 C1H3Br1Cl1)]\\@


 WOMEN HOLD UP HALF THE SKY. -- MAO TSE TUNG
 Job cpu time:       0 days  0 hours  0 minutes 41.9 seconds.
 Elapsed time:       0 days  0 hours  0 minutes  9.1 seconds.
 File lengths (MBytes):  RWF=     10 Int=      0 D2E=      0 Chk=      2 Scr=      1
 Normal termination of Gaussian 16 at Tue Jan 22 16:51:50 2019.
