 Entering Gaussian System, Link 0=g16
 Input=CH3BrCl-42.gjf
 Output=CH3BrCl-42.log
 Initial command:
 /home/xinyan/g16/l1.exe "/scratch/tmp/Gau-14681.inp" -scrdir="/scratch/tmp/"
 Entering Link 1 = /home/xinyan/g16/l1.exe PID=     14682.
  
 Copyright (c) 1988,1990,1992,1993,1995,1998,2003,2009,2016,
            Gaussian, Inc.  All Rights Reserved.
  
 This is part of the Gaussian(R) 16 program.  It is based on
 the Gaussian(R) 09 system (copyright 2009, Gaussian, Inc.),
 the Gaussian(R) 03 system (copyright 2003, Gaussian, Inc.),
 the Gaussian(R) 98 system (copyright 1998, Gaussian, Inc.),
 the Gaussian(R) 94 system (copyright 1995, Gaussian, Inc.),
 the Gaussian 92(TM) system (copyright 1992, Gaussian, Inc.),
 the Gaussian 90(TM) system (copyright 1990, Gaussian, Inc.),
 the Gaussian 88(TM) system (copyright 1988, Gaussian, Inc.),
 the Gaussian 86(TM) system (copyright 1986, Carnegie Mellon
 University), and the Gaussian 82(TM) system (copyright 1983,
 Carnegie Mellon University). Gaussian is a federally registered
 trademark of Gaussian, Inc.
  
 This software contains proprietary and confidential information,
 including trade secrets, belonging to Gaussian, Inc.
  
 This software is provided under written license and may be
 used, copied, transmitted, or stored only in accord with that
 written license.
  
 The following legend is applicable only to US Government
 contracts under FAR:
  
                    RESTRICTED RIGHTS LEGEND
  
 Use, reproduction and disclosure by the US Government is
 subject to restrictions as set forth in subparagraphs (a)
 and (c) of the Commercial Computer Software - Restricted
 Rights clause in FAR 52.227-19.
  
 Gaussian, Inc.
 340 Quinnipiac St., Bldg. 40, Wallingford CT 06492
  
  
 ---------------------------------------------------------------
 Warning -- This program may not be used in any manner that
 competes with the business of Gaussian, Inc. or will provide
 assistance to any competitor of Gaussian, Inc.  The licensee
 of this program is prohibited from giving any competitor of
 Gaussian, Inc. access to this program.  By using this program,
 the user acknowledges that Gaussian, Inc. is engaged in the
 business of creating and licensing software in the field of
 computational chemistry and represents and warrants to the
 licensee that it is not a competitor of Gaussian, Inc. and that
 it will not use this program in any manner prohibited above.
 ---------------------------------------------------------------
  

 Cite this work as:
 Gaussian 16, Revision A.03,
 M. J. Frisch, G. W. Trucks, H. B. Schlegel, G. E. Scuseria, 
 M. A. Robb, J. R. Cheeseman, G. Scalmani, V. Barone, 
 G. A. Petersson, H. Nakatsuji, X. Li, M. Caricato, A. V. Marenich, 
 J. Bloino, B. G. Janesko, R. Gomperts, B. Mennucci, H. P. Hratchian, 
 J. V. Ortiz, A. F. Izmaylov, J. L. Sonnenberg, D. Williams-Young, 
 F. Ding, F. Lipparini, F. Egidi, J. Goings, B. Peng, A. Petrone, 
 T. Henderson, D. Ranasinghe, V. G. Zakrzewski, J. Gao, N. Rega, 
 G. Zheng, W. Liang, M. Hada, M. Ehara, K. Toyota, R. Fukuda, 
 J. Hasegawa, M. Ishida, T. Nakajima, Y. Honda, O. Kitao, H. Nakai, 
 T. Vreven, K. Throssell, J. A. Montgomery, Jr., J. E. Peralta, 
 F. Ogliaro, M. J. Bearpark, J. J. Heyd, E. N. Brothers, K. N. Kudin, 
 V. N. Staroverov, T. A. Keith, R. Kobayashi, J. Normand, 
 K. Raghavachari, A. P. Rendell, J. C. Burant, S. S. Iyengar, 
 J. Tomasi, M. Cossi, J. M. Millam, M. Klene, C. Adamo, R. Cammi, 
 J. W. Ochterski, R. L. Martin, K. Morokuma, O. Farkas, 
 J. B. Foresman, and D. J. Fox, Gaussian, Inc., Wallingford CT, 2016.
 
 ******************************************
 Gaussian 16:  ES64L-G16RevA.03 25-Dec-2016
                22-Jan-2019 
 ******************************************
 %nproc=5
 Will use up to    5 processors via shared memory.
 -------------------------------------------
 # M062X/6-311G** force nosymm int=ultrafine
 -------------------------------------------
 1/10=7,30=1,38=1/1,3;
 2/12=2,15=1,17=6,18=5,40=1/2;
 3/5=4,6=6,7=101,11=2,25=1,30=1,71=1,74=-55,75=-5/1,2,3;
 4//1;
 5/5=2,38=5/2;
 6/7=2,8=2,9=2,10=2,28=1/1;
 7/29=1,30=1/1,2,3,16;
 1/10=7,30=1/3;
 99//99;
 -----
 Title
 -----
 Symbolic Z-matrix:
 Charge = -1 Multiplicity = 1
 C                     1.21105   0.00014   0.00112 
 H                     0.9279   -0.84612   0.60722 
 H                     0.92793   0.94799   0.43133 
 H                     0.92678  -0.10121  -1.0345 
 Cl                    3.13933  -0.00004  -0.00019 
 Br                   -1.61072  -0.00001  -0.00014 
 

 GradGradGradGradGradGradGradGradGradGradGradGradGradGradGradGradGradGrad
 Berny optimization.
 Initialization pass.
 Trust Radius=3.00D-01 FncErr=1.00D-07 GrdErr=1.00D-07 EigMax=2.50D+02 EigMin=1.00D-04
 Number of steps in this run=      2 maximum allowed number of steps=      2.
 GradGradGradGradGradGradGradGradGradGradGradGradGradGradGradGradGradGrad

                          Input orientation:                          
 ---------------------------------------------------------------------
 Center     Atomic      Atomic             Coordinates (Angstroms)
 Number     Number       Type             X           Y           Z
 ---------------------------------------------------------------------
      1          6           0        1.211050    0.000140    0.001120
      2          1           0        0.927900   -0.846120    0.607220
      3          1           0        0.927930    0.947990    0.431330
      4          1           0        0.926780   -0.101210   -1.034500
      5         17           0        3.139330   -0.000040   -0.000190
      6         35           0       -1.610720   -0.000010   -0.000140
 ---------------------------------------------------------------------
                    Distance matrix (angstroms):
                    1          2          3          4          5
     1  C    0.000000
     2  H    1.078743   0.000000
     3  H    1.078729   1.802711   0.000000
     4  H    1.078698   1.802814   1.802631   0.000000
     5  Cl   1.928280   2.444427   2.444435   2.444465   0.000000
     6  Br   2.821770   2.743972   2.744014   2.742088   4.750050
                    6
     6  Br   0.000000
 Symmetry turned off by external request.
 This structure is nearly, but not quite of a higher symmetry.
 Consider Symm=Loose if the higher symmetry is desired.
 Stoichiometry    CH3BrCl(1-)
 Framework group  C1[X(CH3BrCl)]
 Deg. of freedom    12
 Full point group                 C1      NOp   1
 Rotational constants (GHZ):         154.3025692           0.8847404           0.8847398
 Standard basis: 6-311G(d,p) (5D, 7F)
   106 basis functions,   195 primitive gaussians,   111 cartesian basis functions
    31 alpha electrons       31 beta electrons
       nuclear repulsion energy       174.6647472232 Hartrees.
 NAtoms=    6 NActive=    6 NUniq=    6 SFac= 1.00D+00 NAtFMM=   60 NAOKFM=F Big=F
 Integral buffers will be    131072 words long.
 Raffenetti 2 integral format.
 Two-electron integral symmetry is turned off.
 One-electron integrals computed using PRISM.
 NBasis=   106 RedAO= T EigKep=  1.11D-02  NBF=   106
 NBsUse=   106 1.00D-06 EigRej= -1.00D+00 NBFU=   106
 ExpMin= 1.03D-01 ExpMax= 4.40D+05 ExpMxC= 1.51D+04 IAcc=3 IRadAn=         5 AccDes= 0.00D+00
 Harris functional with IExCor= 1009 and IRadAn=       5 diagonalized for initial guess.
 HarFok:  IExCor= 1009 AccDes= 0.00D+00 IRadAn=         5 IDoV= 1 UseB2=F ITyADJ=14
 ICtDFT=  3500011 ScaDFX=  1.000000  1.000000  1.000000  1.000000
 FoFCou: FMM=F IPFlag=           0 FMFlag=      100000 FMFlg1=           0
         NFxFlg=           0 DoJE=T BraDBF=F KetDBF=T FulRan=T
         wScrn=  0.000000 ICntrl=       500 IOpCl=  0 I1Cent=   200000004 NGrid=           0
         NMat0=    1 NMatS0=      1 NMatT0=    0 NMatD0=    1 NMtDS0=    0 NMtDT0=    0
 Symmetry not used in FoFCou.
 Keep R1 ints in memory in canonical form, NReq=20756204.
 Requested convergence on RMS density matrix=1.00D-08 within 128 cycles.
 Requested convergence on MAX density matrix=1.00D-06.
 Requested convergence on             energy=1.00D-06.
 No special actions if energy rises.
 Integral accuracy reduced to 1.0D-05 until final iterations.
 Initial convergence to 1.0D-05 achieved.  Increase integral accuracy.
 SCF Done:  E(RM062X) =  -3074.35258777     A.U. after   14 cycles
            NFock= 14  Conv=0.33D-08     -V/T= 2.0013

 **********************************************************************

            Population analysis using the SCF density.

 **********************************************************************

 Alpha  occ. eigenvalues -- -485.04722-102.51236 -63.03961 -56.86547 -56.86537
 Alpha  occ. eigenvalues --  -56.86537 -10.44619  -9.65385  -8.72570  -7.37807
 Alpha  occ. eigenvalues --   -7.37286  -7.37286  -6.54745  -6.54681  -6.54681
 Alpha  occ. eigenvalues --   -2.57929  -2.57909  -2.57909  -2.57857  -2.57857
 Alpha  occ. eigenvalues --   -0.77974  -0.62727  -0.55960  -0.36503  -0.36501
 Alpha  occ. eigenvalues --   -0.30307  -0.22326  -0.22325  -0.09958  -0.09957
 Alpha  occ. eigenvalues --   -0.09762
 Alpha virt. eigenvalues --    0.19284   0.23407   0.28908   0.28914   0.43459
 Alpha virt. eigenvalues --    0.46762   0.46764   0.47932   0.47933   0.52186
 Alpha virt. eigenvalues --    0.56064   0.56070   0.64266   0.71304   0.73455
 Alpha virt. eigenvalues --    0.76975   0.76981   0.89293   0.94262   0.94263
 Alpha virt. eigenvalues --    0.94800   0.94802   0.98436   1.04928   1.04930
 Alpha virt. eigenvalues --    1.09959   1.09960   1.20358   1.24658   1.31751
 Alpha virt. eigenvalues --    1.31755   1.62000   1.65733   1.65739   1.85133
 Alpha virt. eigenvalues --    1.87969   1.87971   2.04090   2.16252   2.16258
 Alpha virt. eigenvalues --    2.26374   2.26378   2.28578   2.37750   2.37754
 Alpha virt. eigenvalues --    2.52055   2.57175   2.60852   2.60855   2.71857
 Alpha virt. eigenvalues --    2.71863   3.11500   3.23529   3.90321   3.90333
 Alpha virt. eigenvalues --    4.55918   4.55920   4.56935   4.56939   4.71739
 Alpha virt. eigenvalues --    6.79217   7.81434   7.81437   7.87679   9.84736
 Alpha virt. eigenvalues --   24.08793  25.69739  25.69742  26.22090  48.37802
 Alpha virt. eigenvalues --  215.89818 290.97971 290.97973 291.044401020.86503
          Condensed to atoms (all electrons):
               1          2          3          4          5          6
     1  C    5.045774   0.409948   0.409940   0.410006   0.125309  -0.033454
     2  H    0.409948   0.501948  -0.018885  -0.018856  -0.056680  -0.009759
     3  H    0.409940  -0.018885   0.501973  -0.018874  -0.056674  -0.009754
     4  H    0.410006  -0.018856  -0.018874   0.501813  -0.056699  -0.009816
     5  Cl   0.125309  -0.056680  -0.056674  -0.056699  17.356447   0.013493
     6  Br  -0.033454  -0.009759  -0.009754  -0.009816   0.013493  35.933554
 Mulliken charges:
               1
     1  C   -0.367523
     2  H    0.192285
     3  H    0.192274
     4  H    0.192425
     5  Cl  -0.325197
     6  Br  -0.884264
 Sum of Mulliken charges =  -1.00000
 Mulliken charges with hydrogens summed into heavy atoms:
               1
     1  C    0.209461
     5  Cl  -0.325197
     6  Br  -0.884264
 Electronic spatial extent (au):  <R**2>=           1093.7816
 Charge=             -1.0000 electrons
 Dipole moment (field-independent basis, Debye):
    X=              2.3162    Y=              0.0005    Z=              0.0025  Tot=              2.3162
 Quadrupole moment (field-independent basis, Debye-Ang):
   XX=            -73.6249   YY=            -43.1928   ZZ=            -43.1917
   XY=              0.0002   XZ=              0.0016   YZ=             -0.0004
 Traceless Quadrupole moment (field-independent basis, Debye-Ang):
   XX=            -20.2884   YY=             10.1436   ZZ=             10.1447
   XY=              0.0002   XZ=              0.0016   YZ=             -0.0004
 Octapole moment (field-independent basis, Debye-Ang**2):
  XXX=            -88.7675  YYY=              0.2788  ZZZ=             -0.9308  XYY=            -16.7124
  XXY=              0.0006  XXZ=             -0.0006  XZZ=            -16.7146  YZZ=             -0.2794
  YYZ=              0.9241  XYZ=             -0.0003
 Hexadecapole moment (field-independent basis, Debye-Ang**3):
 XXXX=          -1480.2709 YYYY=            -63.8416 ZZZZ=            -63.8429 XXXY=             -0.0030
 XXXZ=             -0.0389 YYYX=              0.2752 YYYZ=              0.0006 ZZZX=             -0.9290
 ZZZY=             -0.0017 XXYY=           -230.6612 XXZZ=           -230.6617 YYZZ=            -21.2776
 XXYZ=             -0.0012 YYXZ=              0.9060 ZZXY=             -0.2751
 N-N= 1.746647472232D+02 E-N=-7.704227140680D+03  KE= 3.070219661867D+03
 Calling FoFJK, ICntrl=      2127 FMM=F ISym2X=0 I1Cent= 0 IOpClX= 0 NMat=1 NMatS=1 NMatT=0.
 -------------------------------------------------------------------
 Center     Atomic                   Forces (Hartrees/Bohr)
 Number     Number              X              Y              Z
 -------------------------------------------------------------------
      1        6           0.021890757   -0.000003695    0.000004320
      2        1           0.000796657    0.000184952   -0.000135297
      3        1           0.000796692   -0.000202305   -0.000088532
      4        1           0.000789946    0.000026881    0.000222272
      5       17          -0.008976654   -0.000004784    0.000005685
      6       35          -0.015297397   -0.000001048   -0.000008449
 -------------------------------------------------------------------
 Cartesian Forces:  Max     0.021890757 RMS     0.006649314

 GradGradGradGradGradGradGradGradGradGradGradGradGradGradGradGradGradGrad
 Berny optimization.
 Search for a local minimum.
 Step number   1 out of a maximum of    2
 All quantities printed in internal units (Hartrees-Bohrs-Radians)
 Second derivative matrix not updated -- first step.
 The second derivative matrix:
                          X1        Y1        Z1        X2        Y2
           X1           0.44948
           Y1           0.00001   0.66941
           Z1           0.00018  -0.00004   0.66950
           X2          -0.08927  -0.06788   0.04859   0.07438
           Y2          -0.06021  -0.25429   0.11792   0.06350   0.24659
           Z2           0.04310   0.11793  -0.17413  -0.04546  -0.13073
           X3          -0.08926   0.07602   0.03449   0.00743  -0.00976
           Y3           0.06743  -0.29622  -0.09376   0.00760  -0.01140
           Z3           0.03059  -0.09376  -0.13222  -0.01186   0.01870
           X4          -0.08945  -0.00817  -0.08336   0.00746   0.00647
           Y4          -0.00725  -0.09203  -0.02413   0.01371   0.01531
           Z4          -0.07397  -0.02413  -0.33628  -0.00339  -0.00327
           X5          -0.18149   0.00001   0.00011   0.00001  -0.00000
           Y5           0.00001  -0.02687   0.00000  -0.01693   0.00380
           Z5           0.00010   0.00000  -0.02688   0.01212  -0.00262
           X6           0.00000   0.00000   0.00000   0.00000   0.00000
           Y6           0.00000   0.00000   0.00000   0.00000   0.00000
           Z6           0.00000   0.00000   0.00000   0.00000   0.00000
                          Z2        X3        Y3        Z3        X4
           Z2           0.15770
           X3          -0.01016   0.07437
           Y3          -0.01237  -0.07111   0.29307
           Z3           0.02058  -0.03227   0.10394   0.11124
           X4           0.01252   0.00745  -0.00392   0.01353   0.07456
           Y4           0.02778  -0.01411   0.00983  -0.03095   0.00764
           Z4          -0.00616  -0.00067   0.00011  -0.00069   0.07802
           X5           0.00000   0.00001   0.00000   0.00000  -0.00001
           Y5          -0.00260   0.01896   0.00473   0.00207  -0.00203
           Z5           0.00201   0.00860   0.00208   0.00108  -0.02071
           X6           0.00000   0.00000   0.00000   0.00000   0.00000
           Y6           0.00000   0.00000   0.00000   0.00000   0.00000
           Z6           0.00000   0.00000   0.00000   0.00000   0.00000
                          Y4        Z4        X5        Y5        Z5
           Y4           0.06669
           Z4           0.02676   0.33749
           X5           0.00000   0.00000   0.18149
           Y5           0.00020   0.00054  -0.00002   0.01815
           Z5           0.00054   0.00563  -0.00011  -0.00000   0.01815
           X6           0.00000   0.00000   0.00000   0.00000   0.00000
           Y6           0.00000   0.00000   0.00000   0.00000   0.00000
           Z6           0.00000   0.00000   0.00000   0.00000   0.00000
                          X6        Y6        Z6
           X6           1.00000
           Y6           0.00000   1.00000
           Z6           0.00000   0.00000   1.00000
 ITU=  0
     Eigenvalues ---    0.03153   0.03153   0.06646   0.06647   0.08008
     Eigenvalues ---    0.14175   0.14176   0.28792   0.46045   0.64182
     Eigenvalues ---    0.96004   0.96017
 Angle between quadratic step and forces=  46.91 degrees.
 Linear search not attempted -- first point.
 B after Tr=    -0.022331   -0.000039   -0.000058
         Rot=    1.000000    0.000000    0.000005   -0.000002 Ang=   0.00 deg.
 Variable       Old X    -DE/DX   Delta X   Delta X   Delta X     New X
                                 (Linear)    (Quad)   (Total)
    X1        2.28855   0.02189   0.00000   0.05589   0.03355   2.32211
    Y1        0.00026  -0.00000   0.00000   0.00005   0.00002   0.00029
    Z1        0.00212   0.00000   0.00000   0.00007   0.00004   0.00215
    X2        1.75348   0.00080   0.00000   0.04427   0.02193   1.77541
    Y2       -1.59894   0.00018   0.00000   0.00265   0.00262  -1.59631
    Z2        1.14748  -0.00014   0.00000  -0.00177  -0.00182   1.14566
    X3        1.75353   0.00080   0.00000   0.04433   0.02199   1.77552
    Y3        1.79144  -0.00020   0.00000  -0.00282  -0.00285   1.78859
    Z3        0.81510  -0.00009   0.00000  -0.00123  -0.00127   0.81382
    X4        1.75136   0.00079   0.00000   0.04414   0.02182   1.77318
    Y4       -0.19126   0.00003   0.00000   0.00038   0.00035  -0.19091
    Z4       -1.95492   0.00022   0.00000   0.00327   0.00323  -1.95169
    X5        5.93247  -0.00898   0.00000  -0.02988  -0.05221   5.88026
    Y5       -0.00008  -0.00000   0.00000  -0.00004  -0.00006  -0.00013
    Z5       -0.00036   0.00001   0.00000  -0.00003  -0.00004  -0.00040
    X6       -3.04382  -0.01530   0.00000  -0.02475  -0.04708  -3.09090
    Y6       -0.00002  -0.00000   0.00000  -0.00003  -0.00008  -0.00010
    Z6       -0.00026  -0.00001   0.00000  -0.00005  -0.00014  -0.00040
         Item               Value     Threshold  Converged?
 Maximum Force            0.021891     0.000450     NO 
 RMS     Force            0.006649     0.000300     NO 
 Maximum Displacement     0.052210     0.001800     NO 
 RMS     Displacement     0.020466     0.001200     NO 
 Predicted change in Energy=-1.868106D-04
 GradGradGradGradGradGradGradGradGradGradGradGradGradGradGradGradGradGrad

 1\1\GINC-FS\Force\RM062X\6-311G(d,p)\C1H3Br1Cl1(1-)\XINYAN\22-Jan-2019
 \0\\# M062X/6-311G** force nosymm int=ultrafine\\Title\\-1,1\C,1.21105
 ,0.00014,0.00112\H,0.9279,-0.84612,0.60722\H,0.92793,0.94799,0.43133\H
 ,0.92678,-0.10121,-1.0345\Cl,3.13933,-0.00004,-0.00019\Br,-1.61072,-0.
 00001,-0.00014\\Version=ES64L-G16RevA.03\HF=-3074.3525878\RMSD=3.334e-
 09\RMSF=6.649e-03\Dipole=1.129423,0.0002149,0.0010623\Quadrupole=-15.0
 839201,7.5415519,7.5423683,0.0001239,0.0012189,-0.0003267\PG=C01 [X(C1
 H3Br1Cl1)]\\@


 WHEN ALL ELSE FAILS, LOOK AT THE SCHRODINGER EQUATION.
     -- RUSSELL T. PACK, APRIL 1978
 Job cpu time:       0 days  0 hours  0 minutes 37.3 seconds.
 Elapsed time:       0 days  0 hours  0 minutes  8.0 seconds.
 File lengths (MBytes):  RWF=     10 Int=      0 D2E=      0 Chk=      2 Scr=      1
 Normal termination of Gaussian 16 at Tue Jan 22 16:55:13 2019.
