 Entering Gaussian System, Link 0=g16
 Input=CH3BrCl-38.gjf
 Output=CH3BrCl-38.log
 Initial command:
 /home/xinyan/g16/l1.exe "/scratch/tmp/Gau-14416.inp" -scrdir="/scratch/tmp/"
 Entering Link 1 = /home/xinyan/g16/l1.exe PID=     14417.
  
 Copyright (c) 1988,1990,1992,1993,1995,1998,2003,2009,2016,
            Gaussian, Inc.  All Rights Reserved.
  
 This is part of the Gaussian(R) 16 program.  It is based on
 the Gaussian(R) 09 system (copyright 2009, Gaussian, Inc.),
 the Gaussian(R) 03 system (copyright 2003, Gaussian, Inc.),
 the Gaussian(R) 98 system (copyright 1998, Gaussian, Inc.),
 the Gaussian(R) 94 system (copyright 1995, Gaussian, Inc.),
 the Gaussian 92(TM) system (copyright 1992, Gaussian, Inc.),
 the Gaussian 90(TM) system (copyright 1990, Gaussian, Inc.),
 the Gaussian 88(TM) system (copyright 1988, Gaussian, Inc.),
 the Gaussian 86(TM) system (copyright 1986, Carnegie Mellon
 University), and the Gaussian 82(TM) system (copyright 1983,
 Carnegie Mellon University). Gaussian is a federally registered
 trademark of Gaussian, Inc.
  
 This software contains proprietary and confidential information,
 including trade secrets, belonging to Gaussian, Inc.
  
 This software is provided under written license and may be
 used, copied, transmitted, or stored only in accord with that
 written license.
  
 The following legend is applicable only to US Government
 contracts under FAR:
  
                    RESTRICTED RIGHTS LEGEND
  
 Use, reproduction and disclosure by the US Government is
 subject to restrictions as set forth in subparagraphs (a)
 and (c) of the Commercial Computer Software - Restricted
 Rights clause in FAR 52.227-19.
  
 Gaussian, Inc.
 340 Quinnipiac St., Bldg. 40, Wallingford CT 06492
  
  
 ---------------------------------------------------------------
 Warning -- This program may not be used in any manner that
 competes with the business of Gaussian, Inc. or will provide
 assistance to any competitor of Gaussian, Inc.  The licensee
 of this program is prohibited from giving any competitor of
 Gaussian, Inc. access to this program.  By using this program,
 the user acknowledges that Gaussian, Inc. is engaged in the
 business of creating and licensing software in the field of
 computational chemistry and represents and warrants to the
 licensee that it is not a competitor of Gaussian, Inc. and that
 it will not use this program in any manner prohibited above.
 ---------------------------------------------------------------
  

 Cite this work as:
 Gaussian 16, Revision A.03,
 M. J. Frisch, G. W. Trucks, H. B. Schlegel, G. E. Scuseria, 
 M. A. Robb, J. R. Cheeseman, G. Scalmani, V. Barone, 
 G. A. Petersson, H. Nakatsuji, X. Li, M. Caricato, A. V. Marenich, 
 J. Bloino, B. G. Janesko, R. Gomperts, B. Mennucci, H. P. Hratchian, 
 J. V. Ortiz, A. F. Izmaylov, J. L. Sonnenberg, D. Williams-Young, 
 F. Ding, F. Lipparini, F. Egidi, J. Goings, B. Peng, A. Petrone, 
 T. Henderson, D. Ranasinghe, V. G. Zakrzewski, J. Gao, N. Rega, 
 G. Zheng, W. Liang, M. Hada, M. Ehara, K. Toyota, R. Fukuda, 
 J. Hasegawa, M. Ishida, T. Nakajima, Y. Honda, O. Kitao, H. Nakai, 
 T. Vreven, K. Throssell, J. A. Montgomery, Jr., J. E. Peralta, 
 F. Ogliaro, M. J. Bearpark, J. J. Heyd, E. N. Brothers, K. N. Kudin, 
 V. N. Staroverov, T. A. Keith, R. Kobayashi, J. Normand, 
 K. Raghavachari, A. P. Rendell, J. C. Burant, S. S. Iyengar, 
 J. Tomasi, M. Cossi, J. M. Millam, M. Klene, C. Adamo, R. Cammi, 
 J. W. Ochterski, R. L. Martin, K. Morokuma, O. Farkas, 
 J. B. Foresman, and D. J. Fox, Gaussian, Inc., Wallingford CT, 2016.
 
 ******************************************
 Gaussian 16:  ES64L-G16RevA.03 25-Dec-2016
                22-Jan-2019 
 ******************************************
 %nproc=5
 Will use up to    5 processors via shared memory.
 -------------------------------------------
 # M062X/6-311G** force nosymm int=ultrafine
 -------------------------------------------
 1/10=7,30=1,38=1/1,3;
 2/12=2,15=1,17=6,18=5,40=1/2;
 3/5=4,6=6,7=101,11=2,25=1,30=1,71=1,74=-55,75=-5/1,2,3;
 4//1;
 5/5=2,38=5/2;
 6/7=2,8=2,9=2,10=2,28=1/1;
 7/29=1,30=1/1,2,3,16;
 1/10=7,30=1/3;
 99//99;
 -----
 Title
 -----
 Symbolic Z-matrix:
 Charge = -1 Multiplicity = 1
 C                     1.10936   0.00014   0.00115 
 H                     0.89477  -0.85744   0.61537 
 H                     0.89476   0.96073   0.43697 
 H                     0.89404  -0.10271  -1.04847 
 Cl                    3.15646  -0.00004  -0.0002 
 Br                   -1.60159  -0.00001  -0.00013 
 

 GradGradGradGradGradGradGradGradGradGradGradGradGradGradGradGradGradGrad
 Berny optimization.
 Initialization pass.
 Trust Radius=3.00D-01 FncErr=1.00D-07 GrdErr=1.00D-07 EigMax=2.50D+02 EigMin=1.00D-04
 Number of steps in this run=      2 maximum allowed number of steps=      2.
 GradGradGradGradGradGradGradGradGradGradGradGradGradGradGradGradGradGrad

                          Input orientation:                          
 ---------------------------------------------------------------------
 Center     Atomic      Atomic             Coordinates (Angstroms)
 Number     Number       Type             X           Y           Z
 ---------------------------------------------------------------------
      1          6           0        1.109360    0.000140    0.001150
      2          1           0        0.894770   -0.857440    0.615370
      3          1           0        0.894760    0.960730    0.436970
      4          1           0        0.894040   -0.102710   -1.048470
      5         17           0        3.156460   -0.000040   -0.000200
      6         35           0       -1.601590   -0.000010   -0.000130
 ---------------------------------------------------------------------
                    Distance matrix (angstroms):
                    1          2          3          4          5
     1  C    0.000000
     2  H    1.076456   0.000000
     3  H    1.076441   1.826901   0.000000
     4  H    1.076403   1.827014   1.826865   0.000000
     5  Cl   2.047100   2.495857   2.495893   2.495587   0.000000
     6  Br   2.710950   2.710321   2.710321   2.708825   4.758050
                    6
     6  Br   0.000000
 Symmetry turned off by external request.
 This structure is nearly, but not quite of a higher symmetry.
 Consider Symm=Loose if the higher symmetry is desired.
 Stoichiometry    CH3BrCl(1-)
 Framework group  C1[X(CH3BrCl)]
 Deg. of freedom    12
 Full point group                 C1      NOp   1
 Rotational constants (GHZ):         150.2403654           0.8870891           0.8870885
 Standard basis: 6-311G(d,p) (5D, 7F)
   106 basis functions,   195 primitive gaussians,   111 cartesian basis functions
    31 alpha electrons       31 beta electrons
       nuclear repulsion energy       174.5691230142 Hartrees.
 NAtoms=    6 NActive=    6 NUniq=    6 SFac= 1.00D+00 NAtFMM=   60 NAOKFM=F Big=F
 Integral buffers will be    131072 words long.
 Raffenetti 2 integral format.
 Two-electron integral symmetry is turned off.
 One-electron integrals computed using PRISM.
 NBasis=   106 RedAO= T EigKep=  1.11D-02  NBF=   106
 NBsUse=   106 1.00D-06 EigRej= -1.00D+00 NBFU=   106
 ExpMin= 1.03D-01 ExpMax= 4.40D+05 ExpMxC= 1.51D+04 IAcc=3 IRadAn=         5 AccDes= 0.00D+00
 Harris functional with IExCor= 1009 and IRadAn=       5 diagonalized for initial guess.
 HarFok:  IExCor= 1009 AccDes= 0.00D+00 IRadAn=         5 IDoV= 1 UseB2=F ITyADJ=14
 ICtDFT=  3500011 ScaDFX=  1.000000  1.000000  1.000000  1.000000
 FoFCou: FMM=F IPFlag=           0 FMFlag=      100000 FMFlg1=           0
         NFxFlg=           0 DoJE=T BraDBF=F KetDBF=T FulRan=T
         wScrn=  0.000000 ICntrl=       500 IOpCl=  0 I1Cent=   200000004 NGrid=           0
         NMat0=    1 NMatS0=      1 NMatT0=    0 NMatD0=    1 NMtDS0=    0 NMtDT0=    0
 Symmetry not used in FoFCou.
 Keep R1 ints in memory in canonical form, NReq=20756204.
 Requested convergence on RMS density matrix=1.00D-08 within 128 cycles.
 Requested convergence on MAX density matrix=1.00D-06.
 Requested convergence on             energy=1.00D-06.
 No special actions if energy rises.
 Integral accuracy reduced to 1.0D-05 until final iterations.
 Initial convergence to 1.0D-05 achieved.  Increase integral accuracy.
 SCF Done:  E(RM062X) =  -3074.34669549     A.U. after   14 cycles
            NFock= 14  Conv=0.37D-08     -V/T= 2.0014

 **********************************************************************

            Population analysis using the SCF density.

 **********************************************************************

 Alpha  occ. eigenvalues -- -485.05996-102.49455 -63.05238 -56.87835 -56.87806
 Alpha  occ. eigenvalues --  -56.87806 -10.45397  -9.63556  -8.73853  -7.35943
 Alpha  occ. eigenvalues --   -7.35476  -7.35476  -6.56073  -6.55939  -6.55939
 Alpha  occ. eigenvalues --   -2.59253  -2.59210  -2.59210  -2.59097  -2.59097
 Alpha  occ. eigenvalues --   -0.75249  -0.63372  -0.56961  -0.36726  -0.36723
 Alpha  occ. eigenvalues --   -0.27718  -0.21188  -0.21187  -0.11041  -0.11040
 Alpha  occ. eigenvalues --   -0.10759
 Alpha virt. eigenvalues --    0.17353   0.22990   0.28862   0.28867   0.43915
 Alpha virt. eigenvalues --    0.46801   0.46803   0.48772   0.48772   0.50931
 Alpha virt. eigenvalues --    0.55313   0.55318   0.66122   0.69883   0.73702
 Alpha virt. eigenvalues --    0.76857   0.76863   0.91181   0.93221   0.93222
 Alpha virt. eigenvalues --    0.93484   0.93486   0.95972   1.08132   1.08137
 Alpha virt. eigenvalues --    1.11689   1.11690   1.22178   1.24943   1.30293
 Alpha virt. eigenvalues --    1.30297   1.60300   1.64627   1.64634   1.77977
 Alpha virt. eigenvalues --    1.90407   1.90410   2.01546   2.14564   2.14567
 Alpha virt. eigenvalues --    2.24339   2.24344   2.28456   2.36261   2.36261
 Alpha virt. eigenvalues --    2.48923   2.60068   2.60948   2.60949   2.74830
 Alpha virt. eigenvalues --    2.74833   3.10216   3.16269   3.89289   3.89299
 Alpha virt. eigenvalues --    4.54744   4.54745   4.55782   4.55784   4.71819
 Alpha virt. eigenvalues --    6.78453   7.80312   7.80315   7.86836   9.84110
 Alpha virt. eigenvalues --   24.08565  25.69946  25.69948  26.16875  48.36892
 Alpha virt. eigenvalues --  215.89069 290.96729 290.96731 291.036731020.85695
          Condensed to atoms (all electrons):
               1          2          3          4          5          6
     1  C    5.012899   0.411491   0.411484   0.411574   0.114395  -0.014663
     2  H    0.411491   0.497709  -0.017436  -0.017399  -0.053243  -0.018117
     3  H    0.411484  -0.017436   0.497725  -0.017414  -0.053234  -0.018113
     4  H    0.411574  -0.017399  -0.017414   0.497622  -0.053308  -0.018201
     5  Cl   0.114395  -0.053243  -0.053234  -0.053308  17.439406   0.015389
     6  Br  -0.014663  -0.018117  -0.018113  -0.018201   0.015389  35.888226
 Mulliken charges:
               1
     1  C   -0.347181
     2  H    0.196994
     3  H    0.196988
     4  H    0.197126
     5  Cl  -0.409405
     6  Br  -0.834521
 Sum of Mulliken charges =  -1.00000
 Mulliken charges with hydrogens summed into heavy atoms:
               1
     1  C    0.243926
     5  Cl  -0.409405
     6  Br  -0.834521
 Electronic spatial extent (au):  <R**2>=           1093.5801
 Charge=             -1.0000 electrons
 Dipole moment (field-independent basis, Debye):
    X=              0.8537    Y=              0.0005    Z=              0.0026  Tot=              0.8537
 Quadrupole moment (field-independent basis, Debye-Ang):
   XX=            -76.7613   YY=            -43.1737   ZZ=            -43.1727
   XY=              0.0001   XZ=              0.0018   YZ=             -0.0004
 Traceless Quadrupole moment (field-independent basis, Debye-Ang):
   XX=            -22.3921   YY=             11.1955   ZZ=             11.1966
   XY=              0.0001   XZ=              0.0018   YZ=             -0.0004
 Octapole moment (field-independent basis, Debye-Ang**2):
  XXX=           -106.7944  YYY=              0.3031  ZZZ=             -1.0098  XYY=            -17.7403
  XXY=              0.0004  XXZ=             -0.0018  XZZ=            -17.7418  YZZ=             -0.3034
  YYZ=              1.0029  XYZ=             -0.0002
 Hexadecapole moment (field-independent basis, Debye-Ang**3):
 XXXX=          -1532.3467 YYYY=            -63.8464 ZZZZ=            -63.8480 XXXY=             -0.0021
 XXXZ=             -0.0307 YYYX=              0.2856 YYYZ=              0.0005 ZZZX=             -0.9549
 ZZZY=             -0.0018 XXYY=           -232.8346 XXZZ=           -232.8349 YYZZ=            -21.2792
 XXYZ=             -0.0012 YYXZ=              0.9390 ZZXY=             -0.2846
 N-N= 1.745691230142D+02 E-N=-7.703848109941D+03  KE= 3.070179030312D+03
 Calling FoFJK, ICntrl=      2127 FMM=F ISym2X=0 I1Cent= 0 IOpClX= 0 NMat=1 NMatS=1 NMatT=0.
 -------------------------------------------------------------------
 Center     Atomic                   Forces (Hartrees/Bohr)
 Number     Number              X              Y              Z
 -------------------------------------------------------------------
      1        6           0.028083172   -0.000006047   -0.000014297
      2        1           0.000611073    0.000325746   -0.000233430
      3        1           0.000609553   -0.000363463   -0.000163522
      4        1           0.000597385    0.000040080    0.000401966
      5       17          -0.014639906   -0.000000659    0.000017823
      6       35          -0.015261278    0.000004344   -0.000008540
 -------------------------------------------------------------------
 Cartesian Forces:  Max     0.028083172 RMS     0.008291505

 GradGradGradGradGradGradGradGradGradGradGradGradGradGradGradGradGradGrad
 Berny optimization.
 Search for a local minimum.
 Step number   1 out of a maximum of    2
 All quantities printed in internal units (Hartrees-Bohrs-Radians)
 Second derivative matrix not updated -- first step.
 The second derivative matrix:
                          X1        Y1        Z1        X2        Y2
           X1           0.36691
           Y1           0.00000   0.69916
           Z1           0.00013  -0.00002   0.69925
           X2          -0.07753  -0.05128   0.03671   0.06290
           Y2          -0.04743  -0.26613   0.11910   0.04984   0.25599
           Z2           0.03395   0.11910  -0.18515  -0.03570  -0.13375
           X3          -0.07753   0.05744   0.02605   0.00731  -0.00800
           Y3           0.05313  -0.30850  -0.09467   0.00617  -0.01061
           Z3           0.02409  -0.09467  -0.14279  -0.01000   0.01945
           X4          -0.07762  -0.00618  -0.06297   0.00732   0.00558
           Y4          -0.00571  -0.10224  -0.02441   0.01148   0.01803
           Z4          -0.05825  -0.02441  -0.34902  -0.00263  -0.00291
           X5          -0.13422   0.00001   0.00007   0.00001  -0.00000
           Y5           0.00001  -0.02230   0.00000  -0.01621   0.00272
           Z5           0.00008   0.00000  -0.02229   0.01161  -0.00188
           X6           0.00000   0.00000   0.00000   0.00000   0.00000
           Y6           0.00000   0.00000   0.00000   0.00000   0.00000
           Z6           0.00000   0.00000   0.00000   0.00000   0.00000
                          Z2        X3        Y3        Z3        X4
           Z2           0.16504
           X3          -0.00861   0.06290
           Y3          -0.01266  -0.05584   0.30357
           Z3           0.02366  -0.02533   0.10631   0.11749
           X4           0.01035   0.00732  -0.00346   0.01124   0.06299
           Y4           0.02918  -0.01177   0.01215  -0.03258   0.00600
           Z4          -0.00498  -0.00035  -0.00048   0.00089   0.06123
           X5           0.00000   0.00001   0.00000   0.00000  -0.00001
           Y5          -0.00187   0.01816   0.00338   0.00149  -0.00194
           Z5           0.00143   0.00824   0.00150   0.00076  -0.01985
           X6           0.00000   0.00000   0.00000   0.00000   0.00000
           Y6           0.00000   0.00000   0.00000   0.00000   0.00000
           Z6           0.00000   0.00000   0.00000   0.00000   0.00000
                          Y4        Z4        X5        Y5        Z5
           Y4           0.07194
           Z4           0.02742   0.34908
           X5           0.00000   0.00000   0.13422
           Y5           0.00012   0.00039  -0.00001   0.01608
           Z5           0.00039   0.00403  -0.00008  -0.00000   0.01608
           X6           0.00000   0.00000   0.00000   0.00000   0.00000
           Y6           0.00000   0.00000   0.00000   0.00000   0.00000
           Z6           0.00000   0.00000   0.00000   0.00000   0.00000
                          X6        Y6        Z6
           X6           1.00000
           Y6           0.00000   1.00000
           Z6           0.00000   0.00000   1.00000
 ITU=  0
     Eigenvalues ---    0.03402   0.03402   0.06204   0.06204   0.06910
     Eigenvalues ---    0.15083   0.15084   0.29214   0.44521   0.53669
     Eigenvalues ---    0.99195   0.99208
 Angle between quadratic step and forces=  48.08 degrees.
 Linear search not attempted -- first point.
 B after Tr=    -0.035279    0.000006   -0.000037
         Rot=    1.000000   -0.000000    0.000008   -0.000000 Ang=   0.00 deg.
 Variable       Old X    -DE/DX   Delta X   Delta X   Delta X     New X
                                 (Linear)    (Quad)   (Total)
    X1        2.09639   0.02808   0.00000   0.08821   0.05293   2.14931
    Y1        0.00026  -0.00001   0.00000  -0.00002  -0.00001   0.00025
    Z1        0.00217  -0.00001   0.00000  -0.00001  -0.00002   0.00216
    X2        1.69087   0.00061   0.00000   0.07279   0.03750   1.72837
    Y2       -1.62033   0.00033   0.00000   0.00300   0.00300  -1.61732
    Z2        1.16288  -0.00023   0.00000  -0.00214  -0.00215   1.16073
    X3        1.69085   0.00061   0.00000   0.07275   0.03746   1.72831
    Y3        1.81552  -0.00036   0.00000  -0.00339  -0.00338   1.81213
    Z3        0.82575  -0.00016   0.00000  -0.00151  -0.00152   0.82423
    X4        1.68949   0.00060   0.00000   0.07247   0.03722   1.72671
    Y4       -0.19409   0.00004   0.00000   0.00035   0.00036  -0.19374
    Z4       -1.98132   0.00040   0.00000   0.00373   0.00372  -1.97760
    X5        5.96484  -0.01464   0.00000  -0.06985  -0.10512   5.85972
    Y5       -0.00008  -0.00000   0.00000   0.00002   0.00002  -0.00005
    Z5       -0.00038   0.00002   0.00000   0.00004   0.00010  -0.00028
    X6       -3.02657  -0.01526   0.00000  -0.02469  -0.05997  -3.08654
    Y6       -0.00002   0.00000   0.00000   0.00000   0.00001  -0.00001
    Z6       -0.00025  -0.00001   0.00000  -0.00004  -0.00012  -0.00037
         Item               Value     Threshold  Converged?
 Maximum Force            0.028083     0.000450     NO 
 RMS     Force            0.008292     0.000300     NO 
 Maximum Displacement     0.105124     0.001800     NO 
 RMS     Displacement     0.034709     0.001200     NO 
 Predicted change in Energy=-5.130789D-04
 GradGradGradGradGradGradGradGradGradGradGradGradGradGradGradGradGradGrad

 1\1\GINC-FS\Force\RM062X\6-311G(d,p)\C1H3Br1Cl1(1-)\XINYAN\22-Jan-2019
 \0\\# M062X/6-311G** force nosymm int=ultrafine\\Title\\-1,1\C,1.10936
 ,0.00014,0.00115\H,0.89477,-0.85744,0.61537\H,0.89476,0.96073,0.43697\
 H,0.89404,-0.10271,-1.04847\Cl,3.15646,-0.00004,-0.0002\Br,-1.60159,-0
 .00001,-0.00013\\Version=ES64L-G16RevA.03\HF=-3074.3466955\RMSD=3.742e
 -09\RMSF=8.292e-03\Dipole=0.5509782,0.0002028,0.0011056\Quadrupole=-16
 .6479692,8.3235819,8.3243873,0.0001045,0.0013361,-0.000289\PG=C01 [X(C
 1H3Br1Cl1)]\\@


 FIREWORKS ENDED
 AND SPECTATORS GONE AWAY....
 AH, HOW VAST AND DARK
                     SHIKI
 Job cpu time:       0 days  0 hours  0 minutes 39.2 seconds.
 Elapsed time:       0 days  0 hours  0 minutes  8.4 seconds.
 File lengths (MBytes):  RWF=     10 Int=      0 D2E=      0 Chk=      2 Scr=      1
 Normal termination of Gaussian 16 at Tue Jan 22 16:54:38 2019.
