 Entering Gaussian System, Link 0=g16
 Input=CH3BrCl-51.gjf
 Output=CH3BrCl-51.log
 Initial command:
 /home/xinyan/g16/l1.exe "/scratch/tmp/Gau-15292.inp" -scrdir="/scratch/tmp/"
 Entering Link 1 = /home/xinyan/g16/l1.exe PID=     15293.
  
 Copyright (c) 1988,1990,1992,1993,1995,1998,2003,2009,2016,
            Gaussian, Inc.  All Rights Reserved.
  
 This is part of the Gaussian(R) 16 program.  It is based on
 the Gaussian(R) 09 system (copyright 2009, Gaussian, Inc.),
 the Gaussian(R) 03 system (copyright 2003, Gaussian, Inc.),
 the Gaussian(R) 98 system (copyright 1998, Gaussian, Inc.),
 the Gaussian(R) 94 system (copyright 1995, Gaussian, Inc.),
 the Gaussian 92(TM) system (copyright 1992, Gaussian, Inc.),
 the Gaussian 90(TM) system (copyright 1990, Gaussian, Inc.),
 the Gaussian 88(TM) system (copyright 1988, Gaussian, Inc.),
 the Gaussian 86(TM) system (copyright 1986, Carnegie Mellon
 University), and the Gaussian 82(TM) system (copyright 1983,
 Carnegie Mellon University). Gaussian is a federally registered
 trademark of Gaussian, Inc.
  
 This software contains proprietary and confidential information,
 including trade secrets, belonging to Gaussian, Inc.
  
 This software is provided under written license and may be
 used, copied, transmitted, or stored only in accord with that
 written license.
  
 The following legend is applicable only to US Government
 contracts under FAR:
  
                    RESTRICTED RIGHTS LEGEND
  
 Use, reproduction and disclosure by the US Government is
 subject to restrictions as set forth in subparagraphs (a)
 and (c) of the Commercial Computer Software - Restricted
 Rights clause in FAR 52.227-19.
  
 Gaussian, Inc.
 340 Quinnipiac St., Bldg. 40, Wallingford CT 06492
  
  
 ---------------------------------------------------------------
 Warning -- This program may not be used in any manner that
 competes with the business of Gaussian, Inc. or will provide
 assistance to any competitor of Gaussian, Inc.  The licensee
 of this program is prohibited from giving any competitor of
 Gaussian, Inc. access to this program.  By using this program,
 the user acknowledges that Gaussian, Inc. is engaged in the
 business of creating and licensing software in the field of
 computational chemistry and represents and warrants to the
 licensee that it is not a competitor of Gaussian, Inc. and that
 it will not use this program in any manner prohibited above.
 ---------------------------------------------------------------
  

 Cite this work as:
 Gaussian 16, Revision A.03,
 M. J. Frisch, G. W. Trucks, H. B. Schlegel, G. E. Scuseria, 
 M. A. Robb, J. R. Cheeseman, G. Scalmani, V. Barone, 
 G. A. Petersson, H. Nakatsuji, X. Li, M. Caricato, A. V. Marenich, 
 J. Bloino, B. G. Janesko, R. Gomperts, B. Mennucci, H. P. Hratchian, 
 J. V. Ortiz, A. F. Izmaylov, J. L. Sonnenberg, D. Williams-Young, 
 F. Ding, F. Lipparini, F. Egidi, J. Goings, B. Peng, A. Petrone, 
 T. Henderson, D. Ranasinghe, V. G. Zakrzewski, J. Gao, N. Rega, 
 G. Zheng, W. Liang, M. Hada, M. Ehara, K. Toyota, R. Fukuda, 
 J. Hasegawa, M. Ishida, T. Nakajima, Y. Honda, O. Kitao, H. Nakai, 
 T. Vreven, K. Throssell, J. A. Montgomery, Jr., J. E. Peralta, 
 F. Ogliaro, M. J. Bearpark, J. J. Heyd, E. N. Brothers, K. N. Kudin, 
 V. N. Staroverov, T. A. Keith, R. Kobayashi, J. Normand, 
 K. Raghavachari, A. P. Rendell, J. C. Burant, S. S. Iyengar, 
 J. Tomasi, M. Cossi, J. M. Millam, M. Klene, C. Adamo, R. Cammi, 
 J. W. Ochterski, R. L. Martin, K. Morokuma, O. Farkas, 
 J. B. Foresman, and D. J. Fox, Gaussian, Inc., Wallingford CT, 2016.
 
 ******************************************
 Gaussian 16:  ES64L-G16RevA.03 25-Dec-2016
                22-Jan-2019 
 ******************************************
 %nproc=5
 Will use up to    5 processors via shared memory.
 -------------------------------------------
 # M062X/6-311G** force nosymm int=ultrafine
 -------------------------------------------
 1/10=7,30=1,38=1/1,3;
 2/12=2,15=1,17=6,18=5,40=1/2;
 3/5=4,6=6,7=101,11=2,25=1,30=1,71=1,74=-55,75=-5/1,2,3;
 4//1;
 5/5=2,38=5/2;
 6/7=2,8=2,9=2,10=2,28=1/1;
 7/29=1,30=1/1,2,3,16;
 1/10=7,30=1/3;
 99//99;
 -----
 Title
 -----
 Symbolic Z-matrix:
 Charge = -1 Multiplicity = 1
 C                     1.35977   0.00061   0.00153 
 H                     1.02686  -0.83538   0.60018 
 H                     1.02648   0.9373    0.42655 
 H                     1.02347  -0.09928  -1.02191 
 Cl                    3.18935  -0.00013  -0.00018 
 Br                   -1.65926  -0.00007  -0.00022 
 

 GradGradGradGradGradGradGradGradGradGradGradGradGradGradGradGradGradGrad
 Berny optimization.
 Initialization pass.
 Trust Radius=3.00D-01 FncErr=1.00D-07 GrdErr=1.00D-07 EigMax=2.50D+02 EigMin=1.00D-04
 Number of steps in this run=      2 maximum allowed number of steps=      2.
 GradGradGradGradGradGradGradGradGradGradGradGradGradGradGradGradGradGrad

                          Input orientation:                          
 ---------------------------------------------------------------------
 Center     Atomic      Atomic             Coordinates (Angstroms)
 Number     Number       Type             X           Y           Z
 ---------------------------------------------------------------------
      1          6           0        1.359770    0.000610    0.001530
      2          1           0        1.026860   -0.835380    0.600180
      3          1           0        1.026480    0.937300    0.426550
      4          1           0        1.023470   -0.099280   -1.021910
      5         17           0        3.189350   -0.000130   -0.000180
      6         35           0       -1.659260   -0.000070   -0.000220
 ---------------------------------------------------------------------
                    Distance matrix (angstroms):
                    1          2          3          4          5
     1  C    0.000000
     2  H    1.080782   0.000000
     3  H    1.081255   1.781163   0.000000
     4  H    1.081899   1.781300   1.781164   0.000000
     5  Cl   1.829581   2.394669   2.395596   2.396831   0.000000
     6  Br   3.019031   2.876363   2.876455   2.872409   4.848610
                    6
     6  Br   0.000000
 Symmetry turned off by external request.
 This structure is nearly, but not quite of a higher symmetry.
 Consider Symm=Loose if the higher symmetry is desired.
 Stoichiometry    CH3BrCl(1-)
 Framework group  C1[X(CH3BrCl)]
 Deg. of freedom    12
 Full point group                 C1      NOp   1
 Rotational constants (GHZ):         158.0509339           0.8423802           0.8423798
 Standard basis: 6-311G(d,p) (5D, 7F)
   106 basis functions,   195 primitive gaussians,   111 cartesian basis functions
    31 alpha electrons       31 beta electrons
       nuclear repulsion energy       171.5404408053 Hartrees.
 NAtoms=    6 NActive=    6 NUniq=    6 SFac= 1.00D+00 NAtFMM=   60 NAOKFM=F Big=F
 Integral buffers will be    131072 words long.
 Raffenetti 2 integral format.
 Two-electron integral symmetry is turned off.
 One-electron integrals computed using PRISM.
 NBasis=   106 RedAO= T EigKep=  1.09D-02  NBF=   106
 NBsUse=   106 1.00D-06 EigRej= -1.00D+00 NBFU=   106
 ExpMin= 1.03D-01 ExpMax= 4.40D+05 ExpMxC= 1.51D+04 IAcc=3 IRadAn=         5 AccDes= 0.00D+00
 Harris functional with IExCor= 1009 and IRadAn=       5 diagonalized for initial guess.
 HarFok:  IExCor= 1009 AccDes= 0.00D+00 IRadAn=         5 IDoV= 1 UseB2=F ITyADJ=14
 ICtDFT=  3500011 ScaDFX=  1.000000  1.000000  1.000000  1.000000
 FoFCou: FMM=F IPFlag=           0 FMFlag=      100000 FMFlg1=           0
         NFxFlg=           0 DoJE=T BraDBF=F KetDBF=T FulRan=T
         wScrn=  0.000000 ICntrl=       500 IOpCl=  0 I1Cent=   200000004 NGrid=           0
         NMat0=    1 NMatS0=      1 NMatT0=    0 NMatD0=    1 NMtDS0=    0 NMtDT0=    0
 Symmetry not used in FoFCou.
 Keep R1 ints in memory in canonical form, NReq=20756204.
 Requested convergence on RMS density matrix=1.00D-08 within 128 cycles.
 Requested convergence on MAX density matrix=1.00D-06.
 Requested convergence on             energy=1.00D-06.
 No special actions if energy rises.
 Integral accuracy reduced to 1.0D-05 until final iterations.
 Initial convergence to 1.0D-05 achieved.  Increase integral accuracy.
 SCF Done:  E(RM062X) =  -3074.35727147     A.U. after   13 cycles
            NFock= 13  Conv=0.47D-08     -V/T= 2.0013

 **********************************************************************

            Population analysis using the SCF density.

 **********************************************************************

 Alpha  occ. eigenvalues -- -485.03928-102.52740 -63.03150 -56.85735 -56.85731
 Alpha  occ. eigenvalues --  -56.85731 -10.44261  -9.66962  -8.71745  -7.39411
 Alpha  occ. eigenvalues --   -7.38847  -7.38847  -6.53897  -6.53868  -6.53868
 Alpha  occ. eigenvalues --   -2.57085  -2.57075  -2.57075  -2.57052  -2.57052
 Alpha  occ. eigenvalues --   -0.80721  -0.62370  -0.55260  -0.36881  -0.36849
 Alpha  occ. eigenvalues --   -0.32751  -0.23128  -0.23124  -0.09178  -0.09177
 Alpha  occ. eigenvalues --   -0.09143
 Alpha virt. eigenvalues --    0.20660   0.23664   0.28589   0.28594   0.43284
 Alpha virt. eigenvalues --    0.46458   0.46471   0.47161   0.47162   0.53562
 Alpha virt. eigenvalues --    0.56591   0.56599   0.60392   0.71995   0.74244
 Alpha virt. eigenvalues --    0.76679   0.76704   0.86899   0.95049   0.95050
 Alpha virt. eigenvalues --    0.95890   0.95897   1.00363   1.01898   1.01912
 Alpha virt. eigenvalues --    1.08379   1.08382   1.15565   1.25478   1.32766
 Alpha virt. eigenvalues --    1.32769   1.63251   1.66111   1.66130   1.87146
 Alpha virt. eigenvalues --    1.87152   1.88853   2.07791   2.17518   2.17526
 Alpha virt. eigenvalues --    2.26779   2.26792   2.27017   2.39239   2.39254
 Alpha virt. eigenvalues --    2.53934   2.54379   2.59487   2.59555   2.69699
 Alpha virt. eigenvalues --    2.69772   3.08883   3.31782   3.91085   3.91274
 Alpha virt. eigenvalues --    4.56674   4.56676   4.57515   4.57521   4.69203
 Alpha virt. eigenvalues --    6.78980   7.82068   7.82070   7.87401   9.86128
 Alpha virt. eigenvalues --   24.08298  25.69635  25.69642  26.23620  48.37720
 Alpha virt. eigenvalues --  215.91355 290.98624 290.98627 291.038251020.86157
          Condensed to atoms (all electrons):
               1          2          3          4          5          6
     1  C    5.069402   0.406117   0.406022   0.405975   0.136942  -0.030981
     2  H    0.406117   0.505252  -0.020701  -0.020719  -0.059084   0.000485
     3  H    0.406022  -0.020701   0.505362  -0.020784  -0.058973   0.000503
     4  H    0.405975  -0.020719  -0.020784   0.505126  -0.058873   0.000477
     5  Cl   0.136942  -0.059084  -0.058973  -0.058873  17.284898   0.008859
     6  Br  -0.030981   0.000485   0.000503   0.000477   0.008859  35.939434
 Mulliken charges:
               1
     1  C   -0.393476
     2  H    0.188650
     3  H    0.188572
     4  H    0.188798
     5  Cl  -0.253768
     6  Br  -0.918776
 Sum of Mulliken charges =  -1.00000
 Mulliken charges with hydrogens summed into heavy atoms:
               1
     1  C    0.172544
     5  Cl  -0.253768
     6  Br  -0.918776
 Electronic spatial extent (au):  <R**2>=           1141.5483
 Charge=             -1.0000 electrons
 Dipole moment (field-independent basis, Debye):
    X=              3.5181    Y=              0.0014    Z=              0.0032  Tot=              3.5181
 Quadrupole moment (field-independent basis, Debye-Ang):
   XX=            -71.9443   YY=            -43.1863   ZZ=            -43.1862
   XY=             -0.0003   XZ=              0.0036   YZ=             -0.0010
 Traceless Quadrupole moment (field-independent basis, Debye-Ang):
   XX=            -19.1720   YY=              9.5859   ZZ=              9.5861
   XY=             -0.0003   XZ=              0.0036   YZ=             -0.0010
 Octapole moment (field-independent basis, Debye-Ang**2):
  XXX=            -78.2662  YYY=              0.2571  ZZZ=             -0.8700  XYY=            -16.3460
  XXY=             -0.0034  XXZ=              0.0073  XZZ=            -16.3525  YZZ=             -0.2619
  YYZ=              0.8632  XYZ=             -0.0011
 Hexadecapole moment (field-independent basis, Debye-Ang**3):
 XXXX=          -1512.5701 YYYY=            -63.7388 ZZZZ=            -63.7478 XXXY=             -0.0328
 XXXZ=             -0.0580 YYYX=              0.2766 YYYZ=              0.0007 ZZZX=             -0.9897
 ZZZY=             -0.0040 XXYY=           -238.5729 XXZZ=           -238.5791 YYZZ=            -21.2451
 XXYZ=             -0.0031 YYXZ=              0.9368 ZZXY=             -0.2897
 N-N= 1.715404408053D+02 E-N=-7.698004640046D+03  KE= 3.070248107155D+03
 Calling FoFJK, ICntrl=      2127 FMM=F ISym2X=0 I1Cent= 0 IOpClX= 0 NMat=1 NMatS=1 NMatT=0.
 -------------------------------------------------------------------
 Center     Atomic                   Forces (Hartrees/Bohr)
 Number     Number              X              Y              Z
 -------------------------------------------------------------------
      1        6           0.001908511    0.000198733   -0.000576573
      2        1          -0.000038809   -0.000268951    0.000238512
      3        1           0.000133614    0.000059433    0.000084657
      4        1           0.000398502    0.000010610    0.000338150
      5       17           0.005323836    0.000019396   -0.000060406
      6       35          -0.007725654   -0.000019221   -0.000024340
 -------------------------------------------------------------------
 Cartesian Forces:  Max     0.007725654 RMS     0.002266677

 GradGradGradGradGradGradGradGradGradGradGradGradGradGradGradGradGradGrad
 Berny optimization.
 Search for a local minimum.
 Step number   1 out of a maximum of    2
 All quantities printed in internal units (Hartrees-Bohrs-Radians)
 Second derivative matrix not updated -- first step.
 The second derivative matrix:
                          X1        Y1        Z1        X2        Y2
           X1           0.54327
           Y1           0.00000   0.64485
           Z1           0.00017  -0.00043   0.64382
           X2          -0.10129  -0.07806   0.05587   0.08481
           Y2          -0.06784  -0.24446   0.11651   0.07219   0.23865
           Z2           0.04857   0.11655  -0.16523  -0.05167  -0.12792
           X3          -0.10122   0.08733   0.03961   0.00821  -0.01093
           Y3           0.07589  -0.28540  -0.09243   0.00865  -0.01209
           Z3           0.03444  -0.09247  -0.12367  -0.01262   0.01808
           X4          -0.10157  -0.00936  -0.09585   0.00826   0.00659
           Y4          -0.00814  -0.08393  -0.02365   0.01480   0.01319
           Z4          -0.08335  -0.02364  -0.32385  -0.00416  -0.00345
           X5          -0.23918   0.00008   0.00019   0.00000  -0.00000
           Y5           0.00009  -0.03106  -0.00000  -0.01757   0.00471
           Z5           0.00017  -0.00000  -0.03107   0.01258  -0.00321
           X6           0.00000   0.00000   0.00000   0.00000   0.00000
           Y6           0.00000   0.00000   0.00000   0.00000   0.00000
           Z6           0.00000   0.00000   0.00000   0.00000   0.00000
                          Z2        X3        Y3        Z3        X4
           Z2           0.15163
           X3          -0.01070   0.08474
           Y3          -0.01208  -0.08077   0.28364
           Z3           0.01823  -0.03662   0.10149   0.10604
           X4           0.01379   0.00825  -0.00378   0.01480   0.08508
           Y4           0.02664  -0.01531   0.00800  -0.02963   0.00865
           Z4          -0.00713  -0.00122   0.00046  -0.00197   0.08872
           X5           0.00000   0.00002   0.00000   0.00000  -0.00002
           Y5          -0.00319   0.01967   0.00585   0.00254  -0.00210
           Z5           0.00251   0.00892   0.00255   0.00137  -0.02147
           X6           0.00000   0.00000   0.00000   0.00000   0.00000
           Y6           0.00000   0.00000   0.00000   0.00000   0.00000
           Z6           0.00000   0.00000   0.00000   0.00000   0.00000
                          Y4        Z4        X5        Y5        Z5
           Y4           0.06246
           Z4           0.02597   0.32597
           X5           0.00000   0.00001   0.23918
           Y5           0.00029   0.00066  -0.00009   0.02021
           Z5           0.00067   0.00699  -0.00020  -0.00000   0.02020
           X6           0.00000   0.00000   0.00000   0.00000   0.00000
           Y6           0.00000   0.00000   0.00000   0.00000   0.00000
           Z6           0.00000   0.00000   0.00000   0.00000   0.00000
                          X6        Y6        Z6
           X6           1.00000
           Y6           0.00000   1.00000
           Z6           0.00000   0.00000   1.00000
 ITU=  0
     Eigenvalues ---    0.02816   0.02816   0.07038   0.07044   0.09096
     Eigenvalues ---    0.13436   0.13450   0.28932   0.47508   0.76445
     Eigenvalues ---    0.93077   0.93289
 Angle between quadratic step and forces=  21.82 degrees.
 Linear search not attempted -- first point.
 B after Tr=    -0.000865   -0.000122    0.000053
         Rot=    1.000000   -0.000000   -0.000055   -0.000021 Ang=  -0.01 deg.
 Variable       Old X    -DE/DX   Delta X   Delta X   Delta X     New X
                                 (Linear)    (Quad)   (Total)
    X1        2.56959   0.00191   0.00000   0.00660   0.00574   2.57533
    Y1        0.00115   0.00020   0.00000   0.00013   0.00012   0.00127
    Z1        0.00289  -0.00058   0.00000   0.00013  -0.00010   0.00279
    X2        1.94048  -0.00004   0.00000  -0.00336  -0.00403   1.93645
    Y2       -1.57864  -0.00027   0.00000   0.00131   0.00127  -1.57737
    Z2        1.13418   0.00024   0.00000  -0.00073  -0.00089   1.13329
    X3        1.93977   0.00013   0.00000  -0.00149  -0.00234   1.93742
    Y3        1.77124   0.00006   0.00000  -0.00147  -0.00151   1.76973
    Z3        0.80606   0.00008   0.00000  -0.00064  -0.00080   0.80526
    X4        1.93408   0.00040   0.00000   0.00098  -0.00009   1.93399
    Y4       -0.18761   0.00001   0.00000   0.00039   0.00035  -0.18726
    Z4       -1.93113   0.00034   0.00000   0.00252   0.00236  -1.92877
    X5        6.02700   0.00532   0.00000   0.01495   0.01408   6.04108
    Y5       -0.00025   0.00002   0.00000  -0.00001   0.00011  -0.00013
    Z5       -0.00034  -0.00006   0.00000  -0.00039  -0.00100  -0.00134
    X6       -3.13555  -0.00773   0.00000  -0.01250  -0.01337  -3.14891
    Y6       -0.00013  -0.00002   0.00000  -0.00008  -0.00034  -0.00047
    Z6       -0.00042  -0.00002   0.00000   0.00002   0.00042   0.00000
         Item               Value     Threshold  Converged?
 Maximum Force            0.007726     0.000450     NO 
 RMS     Force            0.002267     0.000300     NO 
 Maximum Displacement     0.014084     0.001800     NO 
 RMS     Displacement     0.004967     0.001200     NO 
 Predicted change in Energy=-8.327670D-05
 GradGradGradGradGradGradGradGradGradGradGradGradGradGradGradGradGradGrad

 1\1\GINC-FS\Force\RM062X\6-311G(d,p)\C1H3Br1Cl1(1-)\XINYAN\22-Jan-2019
 \0\\# M062X/6-311G** force nosymm int=ultrafine\\Title\\-1,1\C,1.35977
 ,0.00061,0.00153\H,1.02686,-0.83538,0.60018\H,1.02648,0.9373,0.42655\H
 ,1.02347,-0.09928,-1.02191\Cl,3.18935,-0.00013,-0.00018\Br,-1.65926,-0
 .00007,-0.00022\\Version=ES64L-G16RevA.03\HF=-3074.3572715\RMSD=4.686e
 -09\RMSF=2.267e-03\Dipole=1.612766,0.0006167,0.0013718\Quadrupole=-14.
 2539269,7.1269159,7.127011,-0.0002582,0.0026982,-0.0007132\PG=C01 [X(C
 1H3Br1Cl1)]\\@


 THE PROMISED LAND ALWAYS LIES ON THE OTHER SIDE OF A WILDERNESS.

                         -- HAVELOCK ELLIS
 Job cpu time:       0 days  0 hours  0 minutes 35.8 seconds.
 Elapsed time:       0 days  0 hours  0 minutes  7.8 seconds.
 File lengths (MBytes):  RWF=     10 Int=      0 D2E=      0 Chk=      2 Scr=      1
 Normal termination of Gaussian 16 at Tue Jan 22 16:56:24 2019.
