 Entering Gaussian System, Link 0=g16
 Input=CH3BrCl-53.gjf
 Output=CH3BrCl-53.log
 Initial command:
 /home/xinyan/g16/l1.exe "/scratch/tmp/Gau-15424.inp" -scrdir="/scratch/tmp/"
 Entering Link 1 = /home/xinyan/g16/l1.exe PID=     15425.
  
 Copyright (c) 1988,1990,1992,1993,1995,1998,2003,2009,2016,
            Gaussian, Inc.  All Rights Reserved.
  
 This is part of the Gaussian(R) 16 program.  It is based on
 the Gaussian(R) 09 system (copyright 2009, Gaussian, Inc.),
 the Gaussian(R) 03 system (copyright 2003, Gaussian, Inc.),
 the Gaussian(R) 98 system (copyright 1998, Gaussian, Inc.),
 the Gaussian(R) 94 system (copyright 1995, Gaussian, Inc.),
 the Gaussian 92(TM) system (copyright 1992, Gaussian, Inc.),
 the Gaussian 90(TM) system (copyright 1990, Gaussian, Inc.),
 the Gaussian 88(TM) system (copyright 1988, Gaussian, Inc.),
 the Gaussian 86(TM) system (copyright 1986, Carnegie Mellon
 University), and the Gaussian 82(TM) system (copyright 1983,
 Carnegie Mellon University). Gaussian is a federally registered
 trademark of Gaussian, Inc.
  
 This software contains proprietary and confidential information,
 including trade secrets, belonging to Gaussian, Inc.
  
 This software is provided under written license and may be
 used, copied, transmitted, or stored only in accord with that
 written license.
  
 The following legend is applicable only to US Government
 contracts under FAR:
  
                    RESTRICTED RIGHTS LEGEND
  
 Use, reproduction and disclosure by the US Government is
 subject to restrictions as set forth in subparagraphs (a)
 and (c) of the Commercial Computer Software - Restricted
 Rights clause in FAR 52.227-19.
  
 Gaussian, Inc.
 340 Quinnipiac St., Bldg. 40, Wallingford CT 06492
  
  
 ---------------------------------------------------------------
 Warning -- This program may not be used in any manner that
 competes with the business of Gaussian, Inc. or will provide
 assistance to any competitor of Gaussian, Inc.  The licensee
 of this program is prohibited from giving any competitor of
 Gaussian, Inc. access to this program.  By using this program,
 the user acknowledges that Gaussian, Inc. is engaged in the
 business of creating and licensing software in the field of
 computational chemistry and represents and warrants to the
 licensee that it is not a competitor of Gaussian, Inc. and that
 it will not use this program in any manner prohibited above.
 ---------------------------------------------------------------
  

 Cite this work as:
 Gaussian 16, Revision A.03,
 M. J. Frisch, G. W. Trucks, H. B. Schlegel, G. E. Scuseria, 
 M. A. Robb, J. R. Cheeseman, G. Scalmani, V. Barone, 
 G. A. Petersson, H. Nakatsuji, X. Li, M. Caricato, A. V. Marenich, 
 J. Bloino, B. G. Janesko, R. Gomperts, B. Mennucci, H. P. Hratchian, 
 J. V. Ortiz, A. F. Izmaylov, J. L. Sonnenberg, D. Williams-Young, 
 F. Ding, F. Lipparini, F. Egidi, J. Goings, B. Peng, A. Petrone, 
 T. Henderson, D. Ranasinghe, V. G. Zakrzewski, J. Gao, N. Rega, 
 G. Zheng, W. Liang, M. Hada, M. Ehara, K. Toyota, R. Fukuda, 
 J. Hasegawa, M. Ishida, T. Nakajima, Y. Honda, O. Kitao, H. Nakai, 
 T. Vreven, K. Throssell, J. A. Montgomery, Jr., J. E. Peralta, 
 F. Ogliaro, M. J. Bearpark, J. J. Heyd, E. N. Brothers, K. N. Kudin, 
 V. N. Staroverov, T. A. Keith, R. Kobayashi, J. Normand, 
 K. Raghavachari, A. P. Rendell, J. C. Burant, S. S. Iyengar, 
 J. Tomasi, M. Cossi, J. M. Millam, M. Klene, C. Adamo, R. Cammi, 
 J. W. Ochterski, R. L. Martin, K. Morokuma, O. Farkas, 
 J. B. Foresman, and D. J. Fox, Gaussian, Inc., Wallingford CT, 2016.
 
 ******************************************
 Gaussian 16:  ES64L-G16RevA.03 25-Dec-2016
                22-Jan-2019 
 ******************************************
 %nproc=5
 Will use up to    5 processors via shared memory.
 -------------------------------------------
 # M062X/6-311G** force nosymm int=ultrafine
 -------------------------------------------
 1/10=7,30=1,38=1/1,3;
 2/12=2,15=1,17=6,18=5,40=1/2;
 3/5=4,6=6,7=101,11=2,25=1,30=1,71=1,74=-55,75=-5/1,2,3;
 4//1;
 5/5=2,38=5/2;
 6/7=2,8=2,9=2,10=2,28=1/1;
 7/29=1,30=1/1,2,3,16;
 1/10=7,30=1/3;
 99//99;
 -----
 Title
 -----
 Symbolic Z-matrix:
 Charge = -1 Multiplicity = 1
 C                     1.38146   0.00092   0.0015 
 H                     1.05302  -0.83429   0.59931 
 H                     1.04898   0.93813   0.42518 
 H                     1.03966  -0.09907  -1.02337 
 Cl                    3.20961  -0.0002    0.00004 
 Br                   -1.67236  -0.00011  -0.00026 
 

 GradGradGradGradGradGradGradGradGradGradGradGradGradGradGradGradGradGrad
 Berny optimization.
 Initialization pass.
 Trust Radius=3.00D-01 FncErr=1.00D-07 GrdErr=1.00D-07 EigMax=2.50D+02 EigMin=1.00D-04
 Number of steps in this run=      2 maximum allowed number of steps=      2.
 GradGradGradGradGradGradGradGradGradGradGradGradGradGradGradGradGradGrad

                          Input orientation:                          
 ---------------------------------------------------------------------
 Center     Atomic      Atomic             Coordinates (Angstroms)
 Number     Number       Type             X           Y           Z
 ---------------------------------------------------------------------
      1          6           0        1.381460    0.000920    0.001500
      2          1           0        1.053020   -0.834290    0.599310
      3          1           0        1.048980    0.938130    0.425180
      4          1           0        1.039660   -0.099070   -1.023370
      5         17           0        3.209610   -0.000200    0.000040
      6         35           0       -1.672360   -0.000110   -0.000260
 ---------------------------------------------------------------------
                    Distance matrix (angstroms):
                    1          2          3          4          5
     1  C    0.000000
     2  H    1.078344   0.000000
     3  H    1.080930   1.780958   0.000000
     4  H    1.084981   1.781521   1.781619   0.000000
     5  Cl   1.828151   2.388663   2.393644   2.401214   0.000000
     6  Br   3.053821   2.912565   2.909808   2.900276   4.881970
                    6
     6  Br   0.000000
 Symmetry turned off by external request.
 Stoichiometry    CH3BrCl(1-)
 Framework group  C1[X(CH3BrCl)]
 Deg. of freedom    12
 Full point group                 C1      NOp   1
 Rotational constants (GHZ):         158.0275126           0.8301666           0.8301646
 Standard basis: 6-311G(d,p) (5D, 7F)
   106 basis functions,   195 primitive gaussians,   111 cartesian basis functions
    31 alpha electrons       31 beta electrons
       nuclear repulsion energy       170.4894081804 Hartrees.
 NAtoms=    6 NActive=    6 NUniq=    6 SFac= 1.00D+00 NAtFMM=   60 NAOKFM=F Big=F
 Integral buffers will be    131072 words long.
 Raffenetti 2 integral format.
 Two-electron integral symmetry is turned off.
 One-electron integrals computed using PRISM.
 NBasis=   106 RedAO= T EigKep=  1.09D-02  NBF=   106
 NBsUse=   106 1.00D-06 EigRej= -1.00D+00 NBFU=   106
 ExpMin= 1.03D-01 ExpMax= 4.40D+05 ExpMxC= 1.51D+04 IAcc=3 IRadAn=         5 AccDes= 0.00D+00
 Harris functional with IExCor= 1009 and IRadAn=       5 diagonalized for initial guess.
 HarFok:  IExCor= 1009 AccDes= 0.00D+00 IRadAn=         5 IDoV= 1 UseB2=F ITyADJ=14
 ICtDFT=  3500011 ScaDFX=  1.000000  1.000000  1.000000  1.000000
 FoFCou: FMM=F IPFlag=           0 FMFlag=      100000 FMFlg1=           0
         NFxFlg=           0 DoJE=T BraDBF=F KetDBF=T FulRan=T
         wScrn=  0.000000 ICntrl=       500 IOpCl=  0 I1Cent=   200000004 NGrid=           0
         NMat0=    1 NMatS0=      1 NMatT0=    0 NMatD0=    1 NMtDS0=    0 NMtDT0=    0
 Symmetry not used in FoFCou.
 Keep R1 ints in memory in canonical form, NReq=20756204.
 Requested convergence on RMS density matrix=1.00D-08 within 128 cycles.
 Requested convergence on MAX density matrix=1.00D-06.
 Requested convergence on             energy=1.00D-06.
 No special actions if energy rises.
 Integral accuracy reduced to 1.0D-05 until final iterations.
 Initial convergence to 1.0D-05 achieved.  Increase integral accuracy.
 SCF Done:  E(RM062X) =  -3074.35769193     A.U. after   13 cycles
            NFock= 13  Conv=0.46D-08     -V/T= 2.0013

 **********************************************************************

            Population analysis using the SCF density.

 **********************************************************************

 Alpha  occ. eigenvalues -- -485.03897-102.52882 -63.03116 -56.85702 -56.85698
 Alpha  occ. eigenvalues --  -56.85698 -10.44389  -9.67103  -8.71709  -7.39554
 Alpha  occ. eigenvalues --   -7.38987  -7.38987  -6.53861  -6.53832  -6.53832
 Alpha  occ. eigenvalues --   -2.57048  -2.57039  -2.57039  -2.57015  -2.57015
 Alpha  occ. eigenvalues --   -0.80876  -0.62442  -0.55223  -0.37075  -0.36901
 Alpha  occ. eigenvalues --   -0.32880  -0.23247  -0.23226  -0.09130  -0.09129
 Alpha  occ. eigenvalues --   -0.09123
 Alpha virt. eigenvalues --    0.20530   0.23613   0.28481   0.28511   0.43154
 Alpha virt. eigenvalues --    0.46341   0.46410   0.47057   0.47062   0.53755
 Alpha virt. eigenvalues --    0.56604   0.56617   0.59883   0.71818   0.74388
 Alpha virt. eigenvalues --    0.76500   0.76666   0.86647   0.95100   0.95100
 Alpha virt. eigenvalues --    0.95958   0.95975   1.00235   1.01637   1.01732
 Alpha virt. eigenvalues --    1.08247   1.08253   1.14536   1.25355   1.32651
 Alpha virt. eigenvalues --    1.32694   1.63133   1.65939   1.66032   1.87037
 Alpha virt. eigenvalues --    1.87065   1.88586   2.07929   2.17608   2.17618
 Alpha virt. eigenvalues --    2.26519   2.26571   2.26659   2.39089   2.39161
 Alpha virt. eigenvalues --    2.53357   2.54199   2.59252   2.59634   2.69392
 Alpha virt. eigenvalues --    2.69846   3.08131   3.31754   3.90530   3.91610
 Alpha virt. eigenvalues --    4.56708   4.56710   4.57497   4.57511   4.68513
 Alpha virt. eigenvalues --    6.78814   7.82073   7.82077   7.87152   9.85993
 Alpha virt. eigenvalues --   24.08133  25.69496  25.69535  26.23362  48.37570
 Alpha virt. eigenvalues --  215.91222 290.98619 290.98626 291.035411020.85952
          Condensed to atoms (all electrons):
               1          2          3          4          5          6
     1  C    5.066846   0.405588   0.405141   0.404552   0.139457  -0.028326
     2  H    0.405588   0.504615  -0.020439  -0.020712  -0.059310   0.001661
     3  H    0.405141  -0.020439   0.504859  -0.020942  -0.058773   0.001713
     4  H    0.404552  -0.020712  -0.020942   0.504769  -0.058021   0.001740
     5  Cl   0.139457  -0.059310  -0.058773  -0.058021  17.279347   0.008069
     6  Br  -0.028326   0.001661   0.001713   0.001740   0.008069  35.936765
 Mulliken charges:
               1
     1  C   -0.393258
     2  H    0.188597
     3  H    0.188440
     4  H    0.188614
     5  Cl  -0.250769
     6  Br  -0.921623
 Sum of Mulliken charges =  -1.00000
 Mulliken charges with hydrogens summed into heavy atoms:
               1
     1  C    0.172393
     5  Cl  -0.250769
     6  Br  -0.921623
 Electronic spatial extent (au):  <R**2>=           1156.7459
 Charge=             -1.0000 electrons
 Dipole moment (field-independent basis, Debye):
    X=              3.6182    Y=              0.0019    Z=              0.0035  Tot=              3.6182
 Quadrupole moment (field-independent basis, Debye-Ang):
   XX=            -72.1028   YY=            -43.1827   ZZ=            -43.1878
   XY=             -0.0041   XZ=              0.0156   YZ=             -0.0028
 Traceless Quadrupole moment (field-independent basis, Debye-Ang):
   XX=            -19.2784   YY=              9.6417   ZZ=              9.6367
   XY=             -0.0041   XZ=              0.0156   YZ=             -0.0028
 Octapole moment (field-independent basis, Debye-Ang**2):
  XXX=            -78.4615  YYY=              0.2523  ZZZ=             -0.8584  XYY=            -16.4243
  XXY=             -0.0187  XXZ=              0.0524  XZZ=            -16.4472  YZZ=             -0.2655
  YYZ=              0.8690  XYZ=             -0.0063
 Hexadecapole moment (field-independent basis, Debye-Ang**3):
 XXXX=          -1533.6524 YYYY=            -63.7111 ZZZZ=            -63.7543 XXXY=             -0.0848
 XXXZ=              0.0313 YYYX=              0.2741 YYYZ=             -0.0043 ZZZX=             -1.0252
 ZZZY=             -0.0101 XXYY=           -241.5982 XXZZ=           -241.6314 YYZZ=            -21.2462
 XXYZ=             -0.0120 YYXZ=              0.9529 ZZXY=             -0.3006
 N-N= 1.704894081804D+02 E-N=-7.695876365632D+03  KE= 3.070240385105D+03
 Calling FoFJK, ICntrl=      2127 FMM=F ISym2X=0 I1Cent= 0 IOpClX= 0 NMat=1 NMatS=1 NMatT=0.
 -------------------------------------------------------------------
 Center     Atomic                   Forces (Hartrees/Bohr)
 Number     Number              X              Y              Z
 -------------------------------------------------------------------
      1        6           0.001423553    0.001055163   -0.003378340
      2        1          -0.001189996   -0.001432389    0.001247820
      3        1          -0.000302566    0.000200403    0.000396402
      4        1           0.001098221    0.000092128    0.002114484
      5       17           0.005088468    0.000113986   -0.000354345
      6       35          -0.006117680   -0.000029292   -0.000026020
 -------------------------------------------------------------------
 Cartesian Forces:  Max     0.006117680 RMS     0.002223748

 GradGradGradGradGradGradGradGradGradGradGradGradGradGradGradGradGradGrad
 Berny optimization.
 Search for a local minimum.
 Step number   1 out of a maximum of    2
 All quantities printed in internal units (Hartrees-Bohrs-Radians)
 Second derivative matrix not updated -- first step.
 The second derivative matrix:
                          X1        Y1        Z1        X2        Y2
           X1           0.54422
           Y1          -0.00010   0.64734
           Z1           0.00046  -0.00218   0.64107
           X2          -0.10118  -0.07803   0.05579   0.08473
           Y2          -0.06781  -0.24677   0.11790   0.07214   0.24097
           Z2           0.04853   0.11806  -0.16657  -0.05152  -0.12939
           X3          -0.10117   0.08734   0.03941   0.00819  -0.01088
           Y3           0.07589  -0.28598  -0.09235   0.00864  -0.01206
           Z3           0.03432  -0.09258  -0.12360  -0.01269   0.01814
           X4          -0.10168  -0.00934  -0.09583   0.00827   0.00655
           Y4          -0.00815  -0.08352  -0.02335   0.01490   0.01318
           Z4          -0.08335  -0.02327  -0.31975  -0.00421  -0.00347
           X5          -0.24019   0.00013   0.00017  -0.00000   0.00000
           Y5           0.00017  -0.03107  -0.00002  -0.01765   0.00468
           Z5           0.00004  -0.00002  -0.03114   0.01263  -0.00318
           X6           0.00000   0.00000   0.00000   0.00000   0.00000
           Y6           0.00000   0.00000   0.00000   0.00000   0.00000
           Z6           0.00000   0.00000   0.00000   0.00000   0.00000
                          Z2        X3        Y3        Z3        X4
           Z2           0.15287
           X3          -0.01070   0.08470
           Y3          -0.01210  -0.08081   0.28429
           Z3           0.01838  -0.03636   0.10144   0.10589
           X4           0.01369   0.00827  -0.00373   0.01473   0.08517
           Y4           0.02660  -0.01536   0.00790  -0.02954   0.00861
           Z4          -0.00716  -0.00126   0.00047  -0.00203   0.08881
           X5           0.00000   0.00002   0.00001   0.00000  -0.00002
           Y5          -0.00316   0.01971   0.00585   0.00253  -0.00209
           Z5           0.00249   0.00891   0.00254   0.00137  -0.02139
           X6           0.00000   0.00000   0.00000   0.00000   0.00000
           Y6           0.00000   0.00000   0.00000   0.00000   0.00000
           Z6           0.00000   0.00000   0.00000   0.00000   0.00000
                          Y4        Z4        X5        Y5        Z5
           Y4           0.06214
           Z4           0.02560   0.32187
           X5           0.00000   0.00001   0.24019
           Y5           0.00029   0.00067  -0.00013   0.02025
           Z5           0.00068   0.00707  -0.00018  -0.00001   0.02022
           X6           0.00000   0.00000   0.00000   0.00000   0.00000
           Y6           0.00000   0.00000   0.00000   0.00000   0.00000
           Z6           0.00000   0.00000   0.00000   0.00000   0.00000
                          X6        Y6        Z6
           X6           1.00000
           Y6           0.00000   1.00000
           Z6           0.00000   0.00000   1.00000
 ITU=  0
     Eigenvalues ---    0.02773   0.02774   0.07023   0.07055   0.09106
     Eigenvalues ---    0.13398   0.13479   0.28944   0.47526   0.76580
     Eigenvalues ---    0.92532   0.93757
 Angle between quadratic step and forces=  41.71 degrees.
 Linear search not attempted -- first point.
 B after Tr=     0.000789   -0.000185    0.000100
         Rot=    1.000000   -0.000001   -0.000262   -0.000086 Ang=  -0.03 deg.
 Variable       Old X    -DE/DX   Delta X   Delta X   Delta X     New X
                                 (Linear)    (Quad)   (Total)
    X1        2.61058   0.00142   0.00000   0.00470   0.00549   2.61607
    Y1        0.00174   0.00106   0.00000   0.00009   0.00036   0.00209
    Z1        0.00283  -0.00338   0.00000   0.00039  -0.00088   0.00196
    X2        1.98992  -0.00119   0.00000  -0.01451  -0.01286   1.97706
    Y2       -1.57658  -0.00143   0.00000  -0.00042  -0.00027  -1.57685
    Z2        1.13253   0.00125   0.00000   0.00090  -0.00004   1.13249
    X3        1.98228  -0.00030   0.00000  -0.00616  -0.00526   1.97703
    Y3        1.77281   0.00020   0.00000  -0.00151  -0.00135   1.77145
    Z3        0.80347   0.00040   0.00000  -0.00023  -0.00116   0.80231
    X4        1.96467   0.00110   0.00000   0.00622   0.00603   1.97070
    Y4       -0.18722   0.00009   0.00000   0.00067   0.00083  -0.18639
    Z4       -1.93389   0.00211   0.00000   0.00626   0.00533  -1.92856
    X5        6.06528   0.00509   0.00000   0.01492   0.01570   6.08099
    Y5       -0.00038   0.00011   0.00000   0.00042   0.00129   0.00091
    Z5        0.00008  -0.00035   0.00000  -0.00195  -0.00504  -0.00496
    X6       -3.16030  -0.00612   0.00000  -0.00990  -0.00911  -3.16941
    Y6       -0.00021  -0.00003   0.00000  -0.00012  -0.00085  -0.00106
    Z6       -0.00049  -0.00003   0.00000   0.00003   0.00179   0.00130
         Item               Value     Threshold  Converged?
 Maximum Force            0.006118     0.000450     NO 
 RMS     Force            0.002224     0.000300     NO 
 Maximum Displacement     0.015703     0.001800     NO 
 RMS     Displacement     0.006024     0.001200     NO 
 Predicted change in Energy=-9.705321D-05
 GradGradGradGradGradGradGradGradGradGradGradGradGradGradGradGradGradGrad

 1\1\GINC-FS\Force\RM062X\6-311G(d,p)\C1H3Br1Cl1(1-)\XINYAN\22-Jan-2019
 \0\\# M062X/6-311G** force nosymm int=ultrafine\\Title\\-1,1\C,1.38146
 ,0.00092,0.0015\H,1.05302,-0.83429,0.59931\H,1.04898,0.93813,0.42518\H
 ,1.03966,-0.09907,-1.02337\Cl,3.20961,-0.0002,0.00004\Br,-1.67236,-0.0
 0011,-0.00026\\Version=ES64L-G16RevA.03\HF=-3074.3576919\RMSD=4.605e-0
 9\RMSF=2.224e-03\Dipole=1.6546473,0.0008507,0.0014338\Quadrupole=-14.3
 330261,7.1684044,7.1646217,-0.0030545,0.0116091,-0.0020448\PG=C01 [X(C
 1H3Br1Cl1)]\\@


 SEEN ON A WALL AT THE UNIVERSITY OF ILLINOIS AT CHICAGO CIRCLE:

 TO DO IS TO BE  -- SOCRATES
 TO BE IS TO DO  -- SARTRE
 OO BE DO BE DO  -- SINATRA
 Job cpu time:       0 days  0 hours  0 minutes 34.5 seconds.
 Elapsed time:       0 days  0 hours  0 minutes  7.5 seconds.
 File lengths (MBytes):  RWF=     10 Int=      0 D2E=      0 Chk=      2 Scr=      1
 Normal termination of Gaussian 16 at Tue Jan 22 16:56:40 2019.
