 Entering Gaussian System, Link 0=g16
 Input=CH3BrCl-2.gjf
 Output=CH3BrCl-2.log
 Initial command:
 /home/xinyan/g16/l1.exe "/scratch/tmp/Gau-11846.inp" -scrdir="/scratch/tmp/"
 Entering Link 1 = /home/xinyan/g16/l1.exe PID=     11847.
  
 Copyright (c) 1988,1990,1992,1993,1995,1998,2003,2009,2016,
            Gaussian, Inc.  All Rights Reserved.
  
 This is part of the Gaussian(R) 16 program.  It is based on
 the Gaussian(R) 09 system (copyright 2009, Gaussian, Inc.),
 the Gaussian(R) 03 system (copyright 2003, Gaussian, Inc.),
 the Gaussian(R) 98 system (copyright 1998, Gaussian, Inc.),
 the Gaussian(R) 94 system (copyright 1995, Gaussian, Inc.),
 the Gaussian 92(TM) system (copyright 1992, Gaussian, Inc.),
 the Gaussian 90(TM) system (copyright 1990, Gaussian, Inc.),
 the Gaussian 88(TM) system (copyright 1988, Gaussian, Inc.),
 the Gaussian 86(TM) system (copyright 1986, Carnegie Mellon
 University), and the Gaussian 82(TM) system (copyright 1983,
 Carnegie Mellon University). Gaussian is a federally registered
 trademark of Gaussian, Inc.
  
 This software contains proprietary and confidential information,
 including trade secrets, belonging to Gaussian, Inc.
  
 This software is provided under written license and may be
 used, copied, transmitted, or stored only in accord with that
 written license.
  
 The following legend is applicable only to US Government
 contracts under FAR:
  
                    RESTRICTED RIGHTS LEGEND
  
 Use, reproduction and disclosure by the US Government is
 subject to restrictions as set forth in subparagraphs (a)
 and (c) of the Commercial Computer Software - Restricted
 Rights clause in FAR 52.227-19.
  
 Gaussian, Inc.
 340 Quinnipiac St., Bldg. 40, Wallingford CT 06492
  
  
 ---------------------------------------------------------------
 Warning -- This program may not be used in any manner that
 competes with the business of Gaussian, Inc. or will provide
 assistance to any competitor of Gaussian, Inc.  The licensee
 of this program is prohibited from giving any competitor of
 Gaussian, Inc. access to this program.  By using this program,
 the user acknowledges that Gaussian, Inc. is engaged in the
 business of creating and licensing software in the field of
 computational chemistry and represents and warrants to the
 licensee that it is not a competitor of Gaussian, Inc. and that
 it will not use this program in any manner prohibited above.
 ---------------------------------------------------------------
  

 Cite this work as:
 Gaussian 16, Revision A.03,
 M. J. Frisch, G. W. Trucks, H. B. Schlegel, G. E. Scuseria, 
 M. A. Robb, J. R. Cheeseman, G. Scalmani, V. Barone, 
 G. A. Petersson, H. Nakatsuji, X. Li, M. Caricato, A. V. Marenich, 
 J. Bloino, B. G. Janesko, R. Gomperts, B. Mennucci, H. P. Hratchian, 
 J. V. Ortiz, A. F. Izmaylov, J. L. Sonnenberg, D. Williams-Young, 
 F. Ding, F. Lipparini, F. Egidi, J. Goings, B. Peng, A. Petrone, 
 T. Henderson, D. Ranasinghe, V. G. Zakrzewski, J. Gao, N. Rega, 
 G. Zheng, W. Liang, M. Hada, M. Ehara, K. Toyota, R. Fukuda, 
 J. Hasegawa, M. Ishida, T. Nakajima, Y. Honda, O. Kitao, H. Nakai, 
 T. Vreven, K. Throssell, J. A. Montgomery, Jr., J. E. Peralta, 
 F. Ogliaro, M. J. Bearpark, J. J. Heyd, E. N. Brothers, K. N. Kudin, 
 V. N. Staroverov, T. A. Keith, R. Kobayashi, J. Normand, 
 K. Raghavachari, A. P. Rendell, J. C. Burant, S. S. Iyengar, 
 J. Tomasi, M. Cossi, J. M. Millam, M. Klene, C. Adamo, R. Cammi, 
 J. W. Ochterski, R. L. Martin, K. Morokuma, O. Farkas, 
 J. B. Foresman, and D. J. Fox, Gaussian, Inc., Wallingford CT, 2016.
 
 ******************************************
 Gaussian 16:  ES64L-G16RevA.03 25-Dec-2016
                22-Jan-2019 
 ******************************************
 %nproc=5
 Will use up to    5 processors via shared memory.
 -------------------------------------------
 # M062X/6-311G** force nosymm int=ultrafine
 -------------------------------------------
 1/10=7,30=1,38=1/1,3;
 2/12=2,15=1,17=6,18=5,40=1/2;
 3/5=4,6=6,7=101,11=2,25=1,30=1,71=1,74=-55,75=-5/1,2,3;
 4//1;
 5/5=2,38=5/2;
 6/7=2,8=2,9=2,10=2,28=1/1;
 7/29=1,30=1/1,2,3,16;
 1/10=7,30=1/3;
 99//99;
 -----
 Title
 -----
 Symbolic Z-matrix:
 Charge = -1 Multiplicity = 1
 C                     0.82558   0.00011   0.00139 
 H                     0.86519  -0.87248   0.62538 
 H                     0.86522   0.97681   0.44503 
 H                     0.86507  -0.10404  -1.06619 
 Cl                    3.20581  -0.00002  -0.00033 
 Br                   -1.57918  -0.00001  -0.00012 
 

 GradGradGradGradGradGradGradGradGradGradGradGradGradGradGradGradGradGrad
 Berny optimization.
 Initialization pass.
 Trust Radius=3.00D-01 FncErr=1.00D-07 GrdErr=1.00D-07 EigMax=2.50D+02 EigMin=1.00D-04
 Number of steps in this run=      2 maximum allowed number of steps=      2.
 GradGradGradGradGradGradGradGradGradGradGradGradGradGradGradGradGradGrad

                          Input orientation:                          
 ---------------------------------------------------------------------
 Center     Atomic      Atomic             Coordinates (Angstroms)
 Number     Number       Type             X           Y           Z
 ---------------------------------------------------------------------
      1          6           0        0.825580    0.000110    0.001390
      2          1           0        0.865190   -0.872480    0.625380
      3          1           0        0.865220    0.976810    0.445030
      4          1           0        0.865070   -0.104040   -1.066190
      5         17           0        3.205810   -0.000020   -0.000330
      6         35           0       -1.579180   -0.000010   -0.000120
 ---------------------------------------------------------------------
                    Distance matrix (angstroms):
                    1          2          3          4          5
     1  C    0.000000
     2  H    1.073474   0.000000
     3  H    1.073467   1.858063   0.000000
     4  H    1.073375   1.857931   1.857962   0.000000
     5  Cl   2.380231   2.575112   2.575054   2.574090   0.000000
     6  Br   2.404760   2.669719   2.669724   2.668649   4.784990
                    6
     6  Br   0.000000
 Symmetry turned off by external request.
 This structure is nearly, but not quite of a higher symmetry.
 Consider Symm=Loose if the higher symmetry is desired.
 Stoichiometry    CH3BrCl(1-)
 Framework group  C1[X(CH3BrCl)]
 Deg. of freedom    12
 Full point group                 C1      NOp   1
 Rotational constants (GHZ):         145.2590155           0.8891705           0.8891701
 Standard basis: 6-311G(d,p) (5D, 7F)
   106 basis functions,   195 primitive gaussians,   111 cartesian basis functions
    31 alpha electrons       31 beta electrons
       nuclear repulsion energy       175.7149312991 Hartrees.
 NAtoms=    6 NActive=    6 NUniq=    6 SFac= 1.00D+00 NAtFMM=   60 NAOKFM=F Big=F
 Integral buffers will be    131072 words long.
 Raffenetti 2 integral format.
 Two-electron integral symmetry is turned off.
 One-electron integrals computed using PRISM.
 NBasis=   106 RedAO= T EigKep=  1.09D-02  NBF=   106
 NBsUse=   106 1.00D-06 EigRej= -1.00D+00 NBFU=   106
 ExpMin= 1.03D-01 ExpMax= 4.40D+05 ExpMxC= 1.51D+04 IAcc=3 IRadAn=         5 AccDes= 0.00D+00
 Harris functional with IExCor= 1009 and IRadAn=       5 diagonalized for initial guess.
 HarFok:  IExCor= 1009 AccDes= 0.00D+00 IRadAn=         5 IDoV= 1 UseB2=F ITyADJ=14
 ICtDFT=  3500011 ScaDFX=  1.000000  1.000000  1.000000  1.000000
 FoFCou: FMM=F IPFlag=           0 FMFlag=      100000 FMFlg1=           0
         NFxFlg=           0 DoJE=T BraDBF=F KetDBF=T FulRan=T
         wScrn=  0.000000 ICntrl=       500 IOpCl=  0 I1Cent=   200000004 NGrid=           0
         NMat0=    1 NMatS0=      1 NMatT0=    0 NMatD0=    1 NMtDS0=    0 NMtDT0=    0
 Symmetry not used in FoFCou.
 Keep R1 ints in memory in canonical form, NReq=20756192.
 Requested convergence on RMS density matrix=1.00D-08 within 128 cycles.
 Requested convergence on MAX density matrix=1.00D-06.
 Requested convergence on             energy=1.00D-06.
 No special actions if energy rises.
 Integral accuracy reduced to 1.0D-05 until final iterations.
 Initial convergence to 1.0D-05 achieved.  Increase integral accuracy.
 SCF Done:  E(RM062X) =  -3074.33757763     A.U. after   14 cycles
            NFock= 14  Conv=0.41D-08     -V/T= 2.0014

 **********************************************************************

            Population analysis using the SCF density.

 **********************************************************************

 Alpha  occ. eigenvalues -- -485.11718-102.42647 -63.10938 -56.93594 -56.93474
 Alpha  occ. eigenvalues --  -56.93474 -10.45957  -9.56790  -8.79565  -7.29036
 Alpha  occ. eigenvalues --   -7.28793  -7.28793  -6.61997  -6.61525  -6.61525
 Alpha  occ. eigenvalues --   -2.65156  -2.65006  -2.65006  -2.64591  -2.64591
 Alpha  occ. eigenvalues --   -0.69376  -0.64823  -0.59798  -0.36999  -0.36999
 Alpha  occ. eigenvalues --   -0.23173  -0.16202  -0.16202  -0.15343  -0.15342
 Alpha  occ. eigenvalues --   -0.13329
 Alpha virt. eigenvalues --    0.15013   0.22533   0.28825   0.28831   0.46747
 Alpha virt. eigenvalues --    0.47013   0.47016   0.47986   0.50350   0.50352
 Alpha virt. eigenvalues --    0.53810   0.53813   0.64851   0.66508   0.76699
 Alpha virt. eigenvalues --    0.76704   0.79114   0.88267   0.88269   0.88839
 Alpha virt. eigenvalues --    0.89486   0.89491   0.97767   1.16947   1.16949
 Alpha virt. eigenvalues --    1.17678   1.17679   1.19060   1.28895   1.28904
 Alpha virt. eigenvalues --    1.36611   1.58381   1.62622   1.62629   1.65895
 Alpha virt. eigenvalues --    1.98897   1.99442   1.99449   2.09834   2.09843
 Alpha virt. eigenvalues --    2.16638   2.16647   2.27314   2.38856   2.38859
 Alpha virt. eigenvalues --    2.49159   2.60001   2.60007   2.66282   2.79410
 Alpha virt. eigenvalues --    2.79410   2.99452   3.15079   3.90208   3.90222
 Alpha virt. eigenvalues --    4.49348   4.49349   4.52296   4.52302   4.70920
 Alpha virt. eigenvalues --    6.73785   7.75472   7.75474   7.83948   9.87141
 Alpha virt. eigenvalues --   24.08579  25.74118  25.74122  26.03980  48.31790
 Alpha virt. eigenvalues --  215.91731 290.91108 290.91108 291.001051020.80746
          Condensed to atoms (all electrons):
               1          2          3          4          5          6
     1  C    4.980152   0.414664   0.414667   0.414785   0.058202   0.069065
     2  H    0.414664   0.494743  -0.016171  -0.016143  -0.042485  -0.039875
     3  H    0.414667  -0.016171   0.494741  -0.016139  -0.042493  -0.039877
     4  H    0.414785  -0.016143  -0.016139   0.494699  -0.042618  -0.040007
     5  Cl   0.058202  -0.042485  -0.042493  -0.042618  17.729101   0.017078
     6  Br   0.069065  -0.039875  -0.039877  -0.040007   0.017078  35.621253
 Mulliken charges:
               1
     1  C   -0.351536
     2  H    0.205267
     3  H    0.205271
     4  H    0.205422
     5  Cl  -0.676786
     6  Br  -0.587638
 Sum of Mulliken charges =  -1.00000
 Mulliken charges with hydrogens summed into heavy atoms:
               1
     1  C    0.264424
     5  Cl  -0.676786
     6  Br  -0.587638
 Electronic spatial extent (au):  <R**2>=           1099.0514
 Charge=             -1.0000 electrons
 Dipole moment (field-independent basis, Debye):
    X=             -4.8601    Y=              0.0003    Z=              0.0033  Tot=              4.8601
 Quadrupole moment (field-independent basis, Debye-Ang):
   XX=            -86.7196   YY=            -43.0562   ZZ=            -43.0559
   XY=              0.0002   XZ=              0.0049   YZ=             -0.0001
 Traceless Quadrupole moment (field-independent basis, Debye-Ang):
   XX=            -29.1090   YY=             14.5544   ZZ=             14.5546
   XY=              0.0002   XZ=              0.0049   YZ=             -0.0001
 Octapole moment (field-independent basis, Debye-Ang**2):
  XXX=           -175.3237  YYY=              0.3347  ZZZ=             -1.1183  XYY=            -21.8126
  XXY=              0.0004  XXZ=              0.0029  XZZ=            -21.8137  YZZ=             -0.3348
  YYZ=              1.1139  XYZ=              0.0003
 Hexadecapole moment (field-independent basis, Debye-Ang**3):
 XXXX=          -1729.8653 YYYY=            -63.5094 ZZZZ=            -63.5123 XXXY=              0.0004
 XXXZ=              0.0312 YYYX=              0.2994 YYYZ=              0.0003 ZZZX=             -0.9813
 ZZZY=             -0.0019 XXYY=           -240.5304 XXZZ=           -240.5307 YYZZ=            -21.1665
 XXYZ=             -0.0011 YYXZ=              1.0023 ZZXY=             -0.2994
 N-N= 1.757149312991D+02 E-N=-7.705262106917D+03  KE= 3.070146802611D+03
 Calling FoFJK, ICntrl=      2127 FMM=F ISym2X=0 I1Cent= 0 IOpClX= 0 NMat=1 NMatS=1 NMatT=0.
 -------------------------------------------------------------------
 Center     Atomic                   Forces (Hartrees/Bohr)
 Number     Number              X              Y              Z
 -------------------------------------------------------------------
      1        6          -0.003657486   -0.000002830   -0.000011347
      2        1          -0.000031786    0.000176189   -0.000105608
      3        1          -0.000039899   -0.000176355   -0.000079380
      4        1          -0.000017301    0.000020058    0.000176542
      5       17           0.001995990   -0.000010831    0.000012794
      6       35           0.001750481   -0.000006229    0.000006999
 -------------------------------------------------------------------
 Cartesian Forces:  Max     0.003657486 RMS     0.001068226

 GradGradGradGradGradGradGradGradGradGradGradGradGradGradGradGradGradGrad
 Berny optimization.
 Search for a local minimum.
 Step number   1 out of a maximum of    2
 All quantities printed in internal units (Hartrees-Bohrs-Radians)
 Second derivative matrix not updated -- first step.
 The second derivative matrix:
                          X1        Y1        Z1        X2        Y2
           X1           0.27449
           Y1           0.00002   0.73893
           Z1           0.00011   0.00002   0.73896
           X2          -0.07156  -0.00080   0.00054   0.05018
           Y2           0.00889  -0.28279   0.11915  -0.00953   0.26940
           Z2          -0.00639   0.11913  -0.20136   0.00685  -0.13720
           X3          -0.07156   0.00088   0.00037   0.01069   0.00175
           Y3          -0.00996  -0.32493  -0.09482  -0.00138  -0.00941
           Z3          -0.00455  -0.09481  -0.15924   0.00208   0.02057
           X4          -0.07155  -0.00010  -0.00099   0.01069  -0.00111
           Y4           0.00106  -0.11856  -0.02435  -0.00241   0.02237
           Z4           0.01087  -0.02434  -0.36573   0.00063  -0.00222
           X5           0.00000   0.00000   0.00000   0.00000   0.00000
           Y5           0.00000   0.00000   0.00000   0.00000   0.00000
           Z5           0.00000   0.00000   0.00000   0.00000   0.00000
           X6          -0.05982  -0.00000  -0.00003   0.00001   0.00000
           Y6          -0.00000  -0.01265   0.00000   0.01411   0.00044
           Z6          -0.00003   0.00000  -0.01263  -0.01009  -0.00029
                          Z2        X3        Y3        Z3        X4
           Z2           0.17564
           X3           0.00177   0.05018
           Y3          -0.01308   0.01068   0.31792
           Z3           0.02863   0.00488   0.10919   0.12713
           X4          -0.00223   0.01069   0.00066  -0.00240   0.05018
           Y4           0.03143   0.00248   0.01588  -0.03518  -0.00114
           Z4          -0.00315   0.00015  -0.00152   0.00334  -0.01165
           X5           0.00000   0.00000   0.00000   0.00000   0.00000
           Y5           0.00000   0.00000   0.00000   0.00000   0.00000
           Z5           0.00000   0.00000   0.00000   0.00000   0.00000
           X6          -0.00000   0.00001  -0.00000  -0.00000  -0.00001
           Y6          -0.00028  -0.01580   0.00054   0.00022   0.00168
           Z6           0.00023  -0.00717   0.00023   0.00013   0.01727
                          Y4        Z4        X5        Y5        Z5
           Y4           0.08028
           Z4           0.02803   0.36490
           X5           0.00000   0.00000   1.00000
           Y5           0.00000   0.00000   0.00000   1.00000
           Z5           0.00000   0.00000   0.00000   0.00000   1.00000
           X6          -0.00000  -0.00000   0.00000   0.00000   0.00000
           Y6           0.00004   0.00006   0.00000   0.00000   0.00000
           Z6           0.00006   0.00063   0.00000   0.00000   0.00000
                          X6        Y6        Z6
           X6           0.05982
           Y6           0.00000   0.01164
           Z6           0.00003   0.00000   0.01163
 ITU=  0
     Eigenvalues ---    0.03626   0.04494   0.04494   0.09725   0.09725
     Eigenvalues ---    0.16810   0.16812   0.33040   0.37957   0.72934
     Eigenvalues ---    1.04645   1.04657
 Angle between quadratic step and forces=  54.59 degrees.
 Linear search not attempted -- first point.
 B after Tr=     0.012228   -0.000019    0.000063
         Rot=    1.000000    0.000000   -0.000008    0.000003 Ang=   0.00 deg.
 Variable       Old X    -DE/DX   Delta X   Delta X   Delta X     New X
                                 (Linear)    (Quad)   (Total)
    X1        1.56012  -0.00366   0.00000  -0.02582  -0.01359   1.54653
    Y1        0.00021  -0.00000   0.00000   0.00004   0.00001   0.00022
    Z1        0.00263  -0.00001   0.00000  -0.00011  -0.00007   0.00256
    X2        1.63497  -0.00003   0.00000  -0.02374  -0.01150   1.62347
    Y2       -1.64875   0.00018   0.00000   0.00060   0.00057  -1.64818
    Z2        1.18180  -0.00011   0.00000  -0.00037  -0.00033   1.18146
    X3        1.63503  -0.00004   0.00000  -0.02391  -0.01166   1.62337
    Y3        1.84590  -0.00018   0.00000  -0.00053  -0.00056   1.84535
    Z3        0.84098  -0.00008   0.00000  -0.00028  -0.00024   0.84074
    X4        1.63475  -0.00002   0.00000  -0.02342  -0.01123   1.62352
    Y4       -0.19661   0.00002   0.00000   0.00013   0.00010  -0.19651
    Z4       -2.01481   0.00018   0.00000   0.00045   0.00048  -2.01432
    X5        6.05810   0.00200   0.00000   0.00272   0.01495   6.07305
    Y5       -0.00004  -0.00001   0.00000  -0.00005  -0.00010  -0.00014
    Z5       -0.00062   0.00001   0.00000   0.00003  -0.00001  -0.00063
    X6       -2.98422   0.00175   0.00000   0.02081   0.03304  -2.95118
    Y6       -0.00002  -0.00001   0.00000  -0.00002  -0.00002  -0.00004
    Z6       -0.00023   0.00001   0.00000   0.00006   0.00017  -0.00006
         Item               Value     Threshold  Converged?
 Maximum Force            0.003657     0.000450     NO 
 RMS     Force            0.001068     0.000300     NO 
 Maximum Displacement     0.033037     0.001800     NO 
 RMS     Displacement     0.010261     0.001200     NO 
 Predicted change in Energy=-3.864810D-05
 GradGradGradGradGradGradGradGradGradGradGradGradGradGradGradGradGradGrad

 1\1\GINC-FS\Force\RM062X\6-311G(d,p)\C1H3Br1Cl1(1-)\XINYAN\22-Jan-2019
 \0\\# M062X/6-311G** force nosymm int=ultrafine\\Title\\-1,1\C,0.82558
 ,0.00011,0.00139\H,0.86519,-0.87248,0.62538\H,0.86522,0.97681,0.44503\
 H,0.86507,-0.10404,-1.06619\Cl,3.20581,-0.00002,-0.00033\Br,-1.57918,-
 0.00001,-0.00012\\Version=ES64L-G16RevA.03\HF=-3074.3375776\RMSD=4.144
 e-09\RMSF=1.068e-03\Dipole=-1.702196,0.0001429,0.0013743\Quadrupole=-2
 1.6418491,10.8208409,10.8210083,0.000132,0.0036685,-0.0001102\PG=C01 [
 X(C1H3Br1Cl1)]\\@


 WHEN ALL ELSE FAILS, LOOK AT THE SCHRODINGER EQUATION.
     -- RUSSELL T. PACK, APRIL 1978
 Job cpu time:       0 days  0 hours  1 minutes 24.3 seconds.
 Elapsed time:       0 days  0 hours  0 minutes 20.4 seconds.
 File lengths (MBytes):  RWF=     10 Int=      0 D2E=      0 Chk=      2 Scr=      1
 Normal termination of Gaussian 16 at Tue Jan 22 16:48:46 2019.
