 Entering Gaussian System, Link 0=g16
 Input=CH3BrCl-8.gjf
 Output=CH3BrCl-8.log
 Initial command:
 /home/xinyan/g16/l1.exe "/scratch/tmp/Gau-12271.inp" -scrdir="/scratch/tmp/"
 Entering Link 1 = /home/xinyan/g16/l1.exe PID=     12272.
  
 Copyright (c) 1988,1990,1992,1993,1995,1998,2003,2009,2016,
            Gaussian, Inc.  All Rights Reserved.
  
 This is part of the Gaussian(R) 16 program.  It is based on
 the Gaussian(R) 09 system (copyright 2009, Gaussian, Inc.),
 the Gaussian(R) 03 system (copyright 2003, Gaussian, Inc.),
 the Gaussian(R) 98 system (copyright 1998, Gaussian, Inc.),
 the Gaussian(R) 94 system (copyright 1995, Gaussian, Inc.),
 the Gaussian 92(TM) system (copyright 1992, Gaussian, Inc.),
 the Gaussian 90(TM) system (copyright 1990, Gaussian, Inc.),
 the Gaussian 88(TM) system (copyright 1988, Gaussian, Inc.),
 the Gaussian 86(TM) system (copyright 1986, Carnegie Mellon
 University), and the Gaussian 82(TM) system (copyright 1983,
 Carnegie Mellon University). Gaussian is a federally registered
 trademark of Gaussian, Inc.
  
 This software contains proprietary and confidential information,
 including trade secrets, belonging to Gaussian, Inc.
  
 This software is provided under written license and may be
 used, copied, transmitted, or stored only in accord with that
 written license.
  
 The following legend is applicable only to US Government
 contracts under FAR:
  
                    RESTRICTED RIGHTS LEGEND
  
 Use, reproduction and disclosure by the US Government is
 subject to restrictions as set forth in subparagraphs (a)
 and (c) of the Commercial Computer Software - Restricted
 Rights clause in FAR 52.227-19.
  
 Gaussian, Inc.
 340 Quinnipiac St., Bldg. 40, Wallingford CT 06492
  
  
 ---------------------------------------------------------------
 Warning -- This program may not be used in any manner that
 competes with the business of Gaussian, Inc. or will provide
 assistance to any competitor of Gaussian, Inc.  The licensee
 of this program is prohibited from giving any competitor of
 Gaussian, Inc. access to this program.  By using this program,
 the user acknowledges that Gaussian, Inc. is engaged in the
 business of creating and licensing software in the field of
 computational chemistry and represents and warrants to the
 licensee that it is not a competitor of Gaussian, Inc. and that
 it will not use this program in any manner prohibited above.
 ---------------------------------------------------------------
  

 Cite this work as:
 Gaussian 16, Revision A.03,
 M. J. Frisch, G. W. Trucks, H. B. Schlegel, G. E. Scuseria, 
 M. A. Robb, J. R. Cheeseman, G. Scalmani, V. Barone, 
 G. A. Petersson, H. Nakatsuji, X. Li, M. Caricato, A. V. Marenich, 
 J. Bloino, B. G. Janesko, R. Gomperts, B. Mennucci, H. P. Hratchian, 
 J. V. Ortiz, A. F. Izmaylov, J. L. Sonnenberg, D. Williams-Young, 
 F. Ding, F. Lipparini, F. Egidi, J. Goings, B. Peng, A. Petrone, 
 T. Henderson, D. Ranasinghe, V. G. Zakrzewski, J. Gao, N. Rega, 
 G. Zheng, W. Liang, M. Hada, M. Ehara, K. Toyota, R. Fukuda, 
 J. Hasegawa, M. Ishida, T. Nakajima, Y. Honda, O. Kitao, H. Nakai, 
 T. Vreven, K. Throssell, J. A. Montgomery, Jr., J. E. Peralta, 
 F. Ogliaro, M. J. Bearpark, J. J. Heyd, E. N. Brothers, K. N. Kudin, 
 V. N. Staroverov, T. A. Keith, R. Kobayashi, J. Normand, 
 K. Raghavachari, A. P. Rendell, J. C. Burant, S. S. Iyengar, 
 J. Tomasi, M. Cossi, J. M. Millam, M. Klene, C. Adamo, R. Cammi, 
 J. W. Ochterski, R. L. Martin, K. Morokuma, O. Farkas, 
 J. B. Foresman, and D. J. Fox, Gaussian, Inc., Wallingford CT, 2016.
 
 ******************************************
 Gaussian 16:  ES64L-G16RevA.03 25-Dec-2016
                22-Jan-2019 
 ******************************************
 %nproc=5
 Will use up to    5 processors via shared memory.
 -------------------------------------------
 # M062X/6-311G** force nosymm int=ultrafine
 -------------------------------------------
 1/10=7,30=1,38=1/1,3;
 2/12=2,15=1,17=6,18=5,40=1/2;
 3/5=4,6=6,7=101,11=2,25=1,30=1,71=1,74=-55,75=-5/1,2,3;
 4//1;
 5/5=2,38=5/2;
 6/7=2,8=2,9=2,10=2,28=1/1;
 7/29=1,30=1/1,2,3,16;
 1/10=7,30=1/3;
 99//99;
 -----
 Title
 -----
 Symbolic Z-matrix:
 Charge = -1 Multiplicity = 1
 C                     0.67111   0.0003    0.0012 
 H                     0.8478   -0.86218   0.61886 
 H                     0.84756   0.96645   0.43947 
 H                     0.84821  -0.10313  -1.05447 
 Cl                    3.23364  -0.00007  -0.00028 
 Br                   -1.56736  -0.00003  -0.00011 
 

 GradGradGradGradGradGradGradGradGradGradGradGradGradGradGradGradGradGrad
 Berny optimization.
 Initialization pass.
 Trust Radius=3.00D-01 FncErr=1.00D-07 GrdErr=1.00D-07 EigMax=2.50D+02 EigMin=1.00D-04
 Number of steps in this run=      2 maximum allowed number of steps=      2.
 GradGradGradGradGradGradGradGradGradGradGradGradGradGradGradGradGradGrad

                          Input orientation:                          
 ---------------------------------------------------------------------
 Center     Atomic      Atomic             Coordinates (Angstroms)
 Number     Number       Type             X           Y           Z
 ---------------------------------------------------------------------
      1          6           0        0.671110    0.000300    0.001200
      2          1           0        0.847800   -0.862180    0.618860
      3          1           0        0.847560    0.966450    0.439470
      4          1           0        0.848210   -0.103130   -1.054470
      5         17           0        3.233640   -0.000070   -0.000280
      6         35           0       -1.567360   -0.000030   -0.000110
 ---------------------------------------------------------------------
                    Distance matrix (angstroms):
                    1          2          3          4          5
     1  C    0.000000
     2  H    1.075451   0.000000
     3  H    1.075482   1.837408   0.000000
     4  H    1.075408   1.837441   1.837351   0.000000
     5  Cl   2.562530   2.611283   2.611689   2.610022   0.000000
     6  Br   2.238470   2.638072   2.638021   2.637666   4.801000
                    6
     6  Br   0.000000
 Symmetry turned off by external request.
 This structure is nearly, but not quite of a higher symmetry.
 Consider Symm=Loose if the higher symmetry is desired.
 Stoichiometry    CH3BrCl(1-)
 Framework group  C1[X(CH3BrCl)]
 Deg. of freedom    12
 Full point group                 C1      NOp   1
 Rotational constants (GHZ):         148.5323592           0.8884993           0.8884990
 Standard basis: 6-311G(d,p) (5D, 7F)
   106 basis functions,   195 primitive gaussians,   111 cartesian basis functions
    31 alpha electrons       31 beta electrons
       nuclear repulsion energy       177.4107918329 Hartrees.
 NAtoms=    6 NActive=    6 NUniq=    6 SFac= 1.00D+00 NAtFMM=   60 NAOKFM=F Big=F
 Integral buffers will be    131072 words long.
 Raffenetti 2 integral format.
 Two-electron integral symmetry is turned off.
 One-electron integrals computed using PRISM.
 NBasis=   106 RedAO= T EigKep=  1.08D-02  NBF=   106
 NBsUse=   106 1.00D-06 EigRej= -1.00D+00 NBFU=   106
 ExpMin= 1.03D-01 ExpMax= 4.40D+05 ExpMxC= 1.51D+04 IAcc=3 IRadAn=         5 AccDes= 0.00D+00
 Harris functional with IExCor= 1009 and IRadAn=       5 diagonalized for initial guess.
 HarFok:  IExCor= 1009 AccDes= 0.00D+00 IRadAn=         5 IDoV= 1 UseB2=F ITyADJ=14
 ICtDFT=  3500011 ScaDFX=  1.000000  1.000000  1.000000  1.000000
 FoFCou: FMM=F IPFlag=           0 FMFlag=      100000 FMFlg1=           0
         NFxFlg=           0 DoJE=T BraDBF=F KetDBF=T FulRan=T
         wScrn=  0.000000 ICntrl=       500 IOpCl=  0 I1Cent=   200000004 NGrid=           0
         NMat0=    1 NMatS0=      1 NMatT0=    0 NMatD0=    1 NMtDS0=    0 NMtDT0=    0
 Symmetry not used in FoFCou.
 Keep R1 ints in memory in canonical form, NReq=20756204.
 Requested convergence on RMS density matrix=1.00D-08 within 128 cycles.
 Requested convergence on MAX density matrix=1.00D-06.
 Requested convergence on             energy=1.00D-06.
 No special actions if energy rises.
 Integral accuracy reduced to 1.0D-05 until final iterations.
 Initial convergence to 1.0D-05 achieved.  Increase integral accuracy.
 SCF Done:  E(RM062X) =  -3074.34193263     A.U. after   14 cycles
            NFock= 14  Conv=0.79D-08     -V/T= 2.0014

 **********************************************************************

            Population analysis using the SCF density.

 **********************************************************************

 Alpha  occ. eigenvalues -- -485.15028-102.39229 -63.14237 -56.96925 -56.96757
 Alpha  occ. eigenvalues --  -56.96757 -10.45469  -9.53421  -8.82875  -7.25591
 Alpha  occ. eigenvalues --   -7.25473  -7.25473  -6.65426  -6.64771  -6.64771
 Alpha  occ. eigenvalues --   -2.68577  -2.68365  -2.68365  -2.67785  -2.67785
 Alpha  occ. eigenvalues --   -0.70429  -0.63733  -0.59895  -0.36614  -0.36612
 Alpha  occ. eigenvalues --   -0.24794  -0.18184  -0.18183  -0.13173  -0.13172
 Alpha  occ. eigenvalues --   -0.12390
 Alpha virt. eigenvalues --    0.15340   0.22998   0.28958   0.28963   0.45156
 Alpha virt. eigenvalues --    0.46410   0.46412   0.49186   0.49188   0.50693
 Alpha virt. eigenvalues --    0.55001   0.55006   0.61929   0.67508   0.76521
 Alpha virt. eigenvalues --    0.76526   0.79325   0.85346   0.85347   0.87697
 Alpha virt. eigenvalues --    0.87701   0.88491   0.99851   1.14223   1.20503
 Alpha virt. eigenvalues --    1.20505   1.20598   1.20599   1.28422   1.28428
 Alpha virt. eigenvalues --    1.38342   1.59702   1.63943   1.63950   1.71366
 Alpha virt. eigenvalues --    1.91423   1.91425   2.02099   2.10885   2.10889
 Alpha virt. eigenvalues --    2.21911   2.21918   2.27047   2.41444   2.41447
 Alpha virt. eigenvalues --    2.50626   2.60827   2.60830   2.62545   2.76386
 Alpha virt. eigenvalues --    2.76387   3.03881   3.15315   3.88857   3.88867
 Alpha virt. eigenvalues --    4.46244   4.46245   4.51738   4.51741   4.73928
 Alpha virt. eigenvalues --    6.70944   7.72869   7.72870   7.83058   9.88850
 Alpha virt. eigenvalues --   24.08667  25.76930  25.76935  26.02942  48.28774
 Alpha virt. eigenvalues --  215.93230 290.88005 290.88006 290.992811020.77781
          Condensed to atoms (all electrons):
               1          2          3          4          5          6
     1  C    4.979663   0.414319   0.414297   0.414403   0.018523   0.109988
     2  H    0.414319   0.490223  -0.016023  -0.015985  -0.029441  -0.044943
     3  H    0.414297  -0.016023   0.490275  -0.016001  -0.029418  -0.044941
     4  H    0.414403  -0.015985  -0.016001   0.490153  -0.029536  -0.045013
     5  Cl   0.018523  -0.029441  -0.029418  -0.029536  17.865955   0.015039
     6  Br   0.109988  -0.044943  -0.044941  -0.045013   0.015039  35.453195
 Mulliken charges:
               1
     1  C   -0.351193
     2  H    0.201850
     3  H    0.201811
     4  H    0.201979
     5  Cl  -0.811122
     6  Br  -0.443326
 Sum of Mulliken charges =  -1.00000
 Mulliken charges with hydrogens summed into heavy atoms:
               1
     1  C    0.254448
     5  Cl  -0.811122
     6  Br  -0.443326
 Electronic spatial extent (au):  <R**2>=           1103.2821
 Charge=             -1.0000 electrons
 Dipole moment (field-independent basis, Debye):
    X=             -7.9435    Y=              0.0009    Z=              0.0029  Tot=              7.9435
 Quadrupole moment (field-independent basis, Debye-Ang):
   XX=            -91.4866   YY=            -43.0554   ZZ=            -43.0546
   XY=              0.0009   XZ=              0.0046   YZ=             -0.0004
 Traceless Quadrupole moment (field-independent basis, Debye-Ang):
   XX=            -32.2878   YY=             16.1435   ZZ=             16.1443
   XY=              0.0009   XZ=              0.0046   YZ=             -0.0004
 Octapole moment (field-independent basis, Debye-Ang**2):
  XXX=           -211.2156  YYY=              0.3187  ZZZ=             -1.0604  XYY=            -24.0609
  XXY=              0.0008  XXZ=              0.0039  XZZ=            -24.0602  YZZ=             -0.3195
  YYZ=              1.0564  XYZ=             -0.0002
 Hexadecapole moment (field-independent basis, Debye-Ang**3):
 XXXX=          -1836.8143 YYYY=            -63.3795 ZZZZ=            -63.3820 XXXY=              0.0093
 XXXZ=              0.0468 YYYX=              0.2820 YYYZ=              0.0010 ZZZX=             -0.9033
 ZZZY=             -0.0022 XXYY=           -244.5906 XXZZ=           -244.5880 YYZZ=            -21.1238
 XXYZ=             -0.0015 YYXZ=              0.9273 ZZXY=             -0.2770
 N-N= 1.774107918329D+02 E-N=-7.708101458868D+03  KE= 3.070162838316D+03
 Calling FoFJK, ICntrl=      2127 FMM=F ISym2X=0 I1Cent= 0 IOpClX= 0 NMat=1 NMatS=1 NMatT=0.
 -------------------------------------------------------------------
 Center     Atomic                   Forces (Hartrees/Bohr)
 Number     Number              X              Y              Z
 -------------------------------------------------------------------
      1        6          -0.019983855    0.000023010   -0.000012872
      2        1          -0.000398037    0.000279493   -0.000193070
      3        1          -0.000396183   -0.000311992   -0.000145562
      4        1          -0.000386563    0.000031334    0.000342274
      5       17           0.010638087   -0.000012286   -0.000001164
      6       35           0.010526551   -0.000009560    0.000010394
 -------------------------------------------------------------------
 Cartesian Forces:  Max     0.019983855 RMS     0.005888546

 GradGradGradGradGradGradGradGradGradGradGradGradGradGradGradGradGradGrad
 Berny optimization.
 Search for a local minimum.
 Step number   1 out of a maximum of    2
 All quantities printed in internal units (Hartrees-Bohrs-Radians)
 Second derivative matrix not updated -- first step.
 The second derivative matrix:
                          X1        Y1        Z1        X2        Y2
           X1           0.30410
           Y1          -0.00008   0.71077
           Z1          -0.00011  -0.00004   0.71085
           X2          -0.07380   0.04188  -0.02998   0.05819
           Y2           0.03951  -0.27147   0.11931  -0.04161   0.26030
           Z2          -0.02828   0.11931  -0.19032   0.02980  -0.13499
           X3          -0.07377  -0.04684  -0.02125   0.00780   0.00690
           Y3          -0.04418  -0.31389  -0.09482  -0.00532  -0.01024
           Z3          -0.02004  -0.09481  -0.14788   0.00860   0.01980
           X4          -0.07384   0.00505   0.05137   0.00781  -0.00479
           Y4           0.00476  -0.10728  -0.02445  -0.00988   0.01937
           Z4           0.04847  -0.02446  -0.35454   0.00228  -0.00270
           X5           0.00000   0.00000   0.00000   0.00000   0.00000
           Y5           0.00000   0.00000   0.00000   0.00000   0.00000
           Z5           0.00000   0.00000   0.00000   0.00000   0.00000
           X6          -0.08269  -0.00001  -0.00004   0.00000   0.00000
           Y6          -0.00001  -0.01812   0.00000   0.01494   0.00205
           Z6          -0.00004   0.00000  -0.01812  -0.01069  -0.00142
                          Z2        X3        Y3        Z3        X4
           Z2           0.16848
           X3           0.00740   0.05816
           Y3          -0.01278   0.04654   0.30829
           Z3           0.02519   0.02112   0.10728   0.12047
           X4          -0.00892   0.00780   0.00296  -0.00967   0.05824
           Y4           0.02987   0.01013   0.01329  -0.03339  -0.00501
           Z4          -0.00442   0.00032  -0.00081   0.00165  -0.05106
           X5           0.00000   0.00000   0.00000   0.00000   0.00000
           Y5           0.00000   0.00000   0.00000   0.00000   0.00000
           Z5           0.00000   0.00000   0.00000   0.00000   0.00000
           X6          -0.00000   0.00001  -0.00000  -0.00000  -0.00001
           Y6          -0.00141  -0.01673   0.00255   0.00112   0.00179
           Z6           0.00107  -0.00759   0.00113   0.00057   0.01828
                          Y4        Z4        X5        Y5        Z5
           Y4           0.07452
           Z4           0.02767   0.35427
           X5           0.00000   0.00000   1.00000
           Y5           0.00000   0.00000   0.00000   1.00000
           Z5           0.00000   0.00000   0.00000   0.00000   1.00000
           X6          -0.00000  -0.00000   0.00000   0.00000   0.00000
           Y6           0.00009   0.00029   0.00000   0.00000   0.00000
           Z6           0.00029   0.00304   0.00000   0.00000   0.00000
                          X6        Y6        Z6
           X6           0.08269
           Y6           0.00001   0.01344
           Z6           0.00004  -0.00000   0.01344
 ITU=  0
     Eigenvalues ---    0.04500   0.04858   0.04859   0.09101   0.09101
     Eigenvalues ---    0.15773   0.15775   0.27595   0.46289   0.73154
     Eigenvalues ---    1.01588   1.01605
 Angle between quadratic step and forces=  52.89 degrees.
 Linear search not attempted -- first point.
 B after Tr=     0.051401   -0.000032    0.000050
         Rot=    1.000000    0.000000   -0.000007   -0.000001 Ang=   0.00 deg.
 Variable       Old X    -DE/DX   Delta X   Delta X   Delta X     New X
                                 (Linear)    (Quad)   (Total)
    X1        1.26821  -0.01998   0.00000  -0.10869  -0.05729   1.21092
    Y1        0.00057   0.00002   0.00000   0.00008   0.00005   0.00062
    Z1        0.00227  -0.00001   0.00000  -0.00008  -0.00004   0.00222
    X2        1.60211  -0.00040   0.00000  -0.10005  -0.04863   1.55348
    Y2       -1.62928   0.00028   0.00000   0.00181   0.00178  -1.62751
    Z2        1.16948  -0.00019   0.00000  -0.00131  -0.00128   1.16820
    X3        1.60166  -0.00040   0.00000  -0.09995  -0.04854   1.55311
    Y3        1.82633  -0.00031   0.00000  -0.00190  -0.00193   1.82440
    Z3        0.83048  -0.00015   0.00000  -0.00094  -0.00091   0.82957
    X4        1.60288  -0.00039   0.00000  -0.09978  -0.04841   1.55448
    Y4       -0.19489   0.00003   0.00000   0.00027   0.00024  -0.19465
    Z4       -1.99266   0.00034   0.00000   0.00209   0.00212  -1.99054
    X5        6.11069   0.01064   0.00000   0.01450   0.06590   6.17659
    Y5       -0.00013  -0.00001   0.00000  -0.00005  -0.00007  -0.00020
    Z5       -0.00053  -0.00000   0.00000  -0.00001  -0.00005  -0.00058
    X6       -2.96188   0.01053   0.00000   0.08557   0.13697  -2.82491
    Y6       -0.00006  -0.00001   0.00000  -0.00003  -0.00007  -0.00012
    Z6       -0.00021   0.00001   0.00000   0.00007   0.00016  -0.00005
         Item               Value     Threshold  Converged?
 Maximum Force            0.019984     0.000450     NO 
 RMS     Force            0.005889     0.000300     NO 
 Maximum Displacement     0.136973     0.001800     NO 
 RMS     Displacement     0.043118     0.001200     NO 
 Predicted change in Energy=-3.925560D-04
 GradGradGradGradGradGradGradGradGradGradGradGradGradGradGradGradGradGrad

 1\1\GINC-FS\Force\RM062X\6-311G(d,p)\C1H3Br1Cl1(1-)\XINYAN\22-Jan-2019
 \0\\# M062X/6-311G** force nosymm int=ultrafine\\Title\\-1,1\C,0.67111
 ,0.0003,0.0012\H,0.8478,-0.86218,0.61886\H,0.84756,0.96645,0.43947\H,0
 .84821,-0.10313,-1.05447\Cl,3.23364,-0.00007,-0.00028\Br,-1.56736,-0.0
 0003,-0.00011\\Version=ES64L-G16RevA.03\HF=-3074.3419326\RMSD=7.935e-0
 9\RMSF=5.889e-03\Dipole=-2.918139,0.0003631,0.0012147\Quadrupole=-24.0
 051674,12.0023,12.0028674,0.0006474,0.0034348,-0.0002984\PG=C01 [X(C1H
 3Br1Cl1)]\\@


 GOORD'S AXIOM:  A MEETING IS AN EVENT AT WHICH
 THE MINUTES ARE KEPT AND THE HOURS ARE LOST.
 Job cpu time:       0 days  0 hours  0 minutes 49.0 seconds.
 Elapsed time:       0 days  0 hours  0 minutes 10.6 seconds.
 File lengths (MBytes):  RWF=     10 Int=      0 D2E=      0 Chk=      2 Scr=      1
 Normal termination of Gaussian 16 at Tue Jan 22 16:50:02 2019.
