 Entering Gaussian System, Link 0=g16
 Input=CH3BrCl-40.gjf
 Output=CH3BrCl-40.log
 Initial command:
 /home/xinyan/g16/l1.exe "/scratch/tmp/Gau-14548.inp" -scrdir="/scratch/tmp/"
 Entering Link 1 = /home/xinyan/g16/l1.exe PID=     14549.
  
 Copyright (c) 1988,1990,1992,1993,1995,1998,2003,2009,2016,
            Gaussian, Inc.  All Rights Reserved.
  
 This is part of the Gaussian(R) 16 program.  It is based on
 the Gaussian(R) 09 system (copyright 2009, Gaussian, Inc.),
 the Gaussian(R) 03 system (copyright 2003, Gaussian, Inc.),
 the Gaussian(R) 98 system (copyright 1998, Gaussian, Inc.),
 the Gaussian(R) 94 system (copyright 1995, Gaussian, Inc.),
 the Gaussian 92(TM) system (copyright 1992, Gaussian, Inc.),
 the Gaussian 90(TM) system (copyright 1990, Gaussian, Inc.),
 the Gaussian 88(TM) system (copyright 1988, Gaussian, Inc.),
 the Gaussian 86(TM) system (copyright 1986, Carnegie Mellon
 University), and the Gaussian 82(TM) system (copyright 1983,
 Carnegie Mellon University). Gaussian is a federally registered
 trademark of Gaussian, Inc.
  
 This software contains proprietary and confidential information,
 including trade secrets, belonging to Gaussian, Inc.
  
 This software is provided under written license and may be
 used, copied, transmitted, or stored only in accord with that
 written license.
  
 The following legend is applicable only to US Government
 contracts under FAR:
  
                    RESTRICTED RIGHTS LEGEND
  
 Use, reproduction and disclosure by the US Government is
 subject to restrictions as set forth in subparagraphs (a)
 and (c) of the Commercial Computer Software - Restricted
 Rights clause in FAR 52.227-19.
  
 Gaussian, Inc.
 340 Quinnipiac St., Bldg. 40, Wallingford CT 06492
  
  
 ---------------------------------------------------------------
 Warning -- This program may not be used in any manner that
 competes with the business of Gaussian, Inc. or will provide
 assistance to any competitor of Gaussian, Inc.  The licensee
 of this program is prohibited from giving any competitor of
 Gaussian, Inc. access to this program.  By using this program,
 the user acknowledges that Gaussian, Inc. is engaged in the
 business of creating and licensing software in the field of
 computational chemistry and represents and warrants to the
 licensee that it is not a competitor of Gaussian, Inc. and that
 it will not use this program in any manner prohibited above.
 ---------------------------------------------------------------
  

 Cite this work as:
 Gaussian 16, Revision A.03,
 M. J. Frisch, G. W. Trucks, H. B. Schlegel, G. E. Scuseria, 
 M. A. Robb, J. R. Cheeseman, G. Scalmani, V. Barone, 
 G. A. Petersson, H. Nakatsuji, X. Li, M. Caricato, A. V. Marenich, 
 J. Bloino, B. G. Janesko, R. Gomperts, B. Mennucci, H. P. Hratchian, 
 J. V. Ortiz, A. F. Izmaylov, J. L. Sonnenberg, D. Williams-Young, 
 F. Ding, F. Lipparini, F. Egidi, J. Goings, B. Peng, A. Petrone, 
 T. Henderson, D. Ranasinghe, V. G. Zakrzewski, J. Gao, N. Rega, 
 G. Zheng, W. Liang, M. Hada, M. Ehara, K. Toyota, R. Fukuda, 
 J. Hasegawa, M. Ishida, T. Nakajima, Y. Honda, O. Kitao, H. Nakai, 
 T. Vreven, K. Throssell, J. A. Montgomery, Jr., J. E. Peralta, 
 F. Ogliaro, M. J. Bearpark, J. J. Heyd, E. N. Brothers, K. N. Kudin, 
 V. N. Staroverov, T. A. Keith, R. Kobayashi, J. Normand, 
 K. Raghavachari, A. P. Rendell, J. C. Burant, S. S. Iyengar, 
 J. Tomasi, M. Cossi, J. M. Millam, M. Klene, C. Adamo, R. Cammi, 
 J. W. Ochterski, R. L. Martin, K. Morokuma, O. Farkas, 
 J. B. Foresman, and D. J. Fox, Gaussian, Inc., Wallingford CT, 2016.
 
 ******************************************
 Gaussian 16:  ES64L-G16RevA.03 25-Dec-2016
                22-Jan-2019 
 ******************************************
 %nproc=5
 Will use up to    5 processors via shared memory.
 -------------------------------------------
 # M062X/6-311G** force nosymm int=ultrafine
 -------------------------------------------
 1/10=7,30=1,38=1/1,3;
 2/12=2,15=1,17=6,18=5,40=1/2;
 3/5=4,6=6,7=101,11=2,25=1,30=1,71=1,74=-55,75=-5/1,2,3;
 4//1;
 5/5=2,38=5/2;
 6/7=2,8=2,9=2,10=2,28=1/1;
 7/29=1,30=1/1,2,3,16;
 1/10=7,30=1/3;
 99//99;
 -----
 Title
 -----
 Symbolic Z-matrix:
 Charge = -1 Multiplicity = 1
 C                     1.16033   0.00014   0.00113 
 H                     0.90923  -0.85181   0.61134 
 H                     0.90921   0.95441   0.43415 
 H                     0.90825  -0.102    -1.04153 
 Cl                    3.14748  -0.00004  -0.00019 
 Br                   -1.60591  -0.00001  -0.00014 
 

 GradGradGradGradGradGradGradGradGradGradGradGradGradGradGradGradGradGrad
 Berny optimization.
 Initialization pass.
 Trust Radius=3.00D-01 FncErr=1.00D-07 GrdErr=1.00D-07 EigMax=2.50D+02 EigMin=1.00D-04
 Number of steps in this run=      2 maximum allowed number of steps=      2.
 GradGradGradGradGradGradGradGradGradGradGradGradGradGradGradGradGradGrad

                          Input orientation:                          
 ---------------------------------------------------------------------
 Center     Atomic      Atomic             Coordinates (Angstroms)
 Number     Number       Type             X           Y           Z
 ---------------------------------------------------------------------
      1          6           0        1.160330    0.000140    0.001130
      2          1           0        0.909230   -0.851810    0.611340
      3          1           0        0.909210    0.954410    0.434150
      4          1           0        0.908250   -0.102000   -1.041530
      5         17           0        3.147480   -0.000040   -0.000190
      6         35           0       -1.605910   -0.000010   -0.000140
 ---------------------------------------------------------------------
                    Distance matrix (angstroms):
                    1          2          3          4          5
     1  C    0.000000
     2  H    1.077602   0.000000
     3  H    1.077589   1.814890   0.000000
     4  H    1.077551   1.814992   1.814837   0.000000
     5  Cl   1.987150   2.471689   2.471736   2.471626   0.000000
     6  Br   2.766240   2.724959   2.724950   2.723214   4.753390
                    6
     6  Br   0.000000
 Symmetry turned off by external request.
 This structure is nearly, but not quite of a higher symmetry.
 Consider Symm=Loose if the higher symmetry is desired.
 Stoichiometry    CH3BrCl(1-)
 Framework group  C1[X(CH3BrCl)]
 Deg. of freedom    12
 Full point group                 C1      NOp   1
 Rotational constants (GHZ):         152.2371288           0.8862203           0.8862197
 Standard basis: 6-311G(d,p) (5D, 7F)
   106 basis functions,   195 primitive gaussians,   111 cartesian basis functions
    31 alpha electrons       31 beta electrons
       nuclear repulsion energy       174.6023648986 Hartrees.
 NAtoms=    6 NActive=    6 NUniq=    6 SFac= 1.00D+00 NAtFMM=   60 NAOKFM=F Big=F
 Integral buffers will be    131072 words long.
 Raffenetti 2 integral format.
 Two-electron integral symmetry is turned off.
 One-electron integrals computed using PRISM.
 NBasis=   106 RedAO= T EigKep=  1.11D-02  NBF=   106
 NBsUse=   106 1.00D-06 EigRej= -1.00D+00 NBFU=   106
 ExpMin= 1.03D-01 ExpMax= 4.40D+05 ExpMxC= 1.51D+04 IAcc=3 IRadAn=         5 AccDes= 0.00D+00
 Harris functional with IExCor= 1009 and IRadAn=       5 diagonalized for initial guess.
 HarFok:  IExCor= 1009 AccDes= 0.00D+00 IRadAn=         5 IDoV= 1 UseB2=F ITyADJ=14
 ICtDFT=  3500011 ScaDFX=  1.000000  1.000000  1.000000  1.000000
 FoFCou: FMM=F IPFlag=           0 FMFlag=      100000 FMFlg1=           0
         NFxFlg=           0 DoJE=T BraDBF=F KetDBF=T FulRan=T
         wScrn=  0.000000 ICntrl=       500 IOpCl=  0 I1Cent=   200000004 NGrid=           0
         NMat0=    1 NMatS0=      1 NMatT0=    0 NMatD0=    1 NMtDS0=    0 NMtDT0=    0
 Symmetry not used in FoFCou.
 Keep R1 ints in memory in canonical form, NReq=20756204.
 Requested convergence on RMS density matrix=1.00D-08 within 128 cycles.
 Requested convergence on MAX density matrix=1.00D-06.
 Requested convergence on             energy=1.00D-06.
 No special actions if energy rises.
 Integral accuracy reduced to 1.0D-05 until final iterations.
 Initial convergence to 1.0D-05 achieved.  Increase integral accuracy.
 SCF Done:  E(RM062X) =  -3074.34980444     A.U. after   14 cycles
            NFock= 14  Conv=0.33D-08     -V/T= 2.0014

 **********************************************************************

            Population analysis using the SCF density.

 **********************************************************************

 Alpha  occ. eigenvalues -- -485.05292-102.50425 -63.04533 -56.87124 -56.87106
 Alpha  occ. eigenvalues --  -56.87106 -10.45031  -9.64544  -8.73146  -7.36949
 Alpha  occ. eigenvalues --   -7.36453  -7.36453  -6.55340  -6.55246  -6.55246
 Alpha  occ. eigenvalues --   -2.58523  -2.58492  -2.58492  -2.58414  -2.58414
 Alpha  occ. eigenvalues --   -0.76611  -0.63053  -0.56422  -0.36585  -0.36582
 Alpha  occ. eigenvalues --   -0.29029  -0.21840  -0.21840  -0.10451  -0.10450
 Alpha  occ. eigenvalues --   -0.10218
 Alpha virt. eigenvalues --    0.18261   0.23199   0.28897   0.28903   0.43597
 Alpha virt. eigenvalues --    0.46759   0.46762   0.48332   0.48332   0.51595
 Alpha virt. eigenvalues --    0.55714   0.55719   0.65412   0.70581   0.73417
 Alpha virt. eigenvalues --    0.76918   0.76924   0.90266   0.93786   0.93787
 Alpha virt. eigenvalues --    0.94190   0.94191   0.97120   1.06494   1.06497
 Alpha virt. eigenvalues --    1.10772   1.10772   1.21310   1.24532   1.30961
 Alpha virt. eigenvalues --    1.30965   1.61135   1.65224   1.65230   1.81664
 Alpha virt. eigenvalues --    1.88880   1.88882   2.02729   2.15499   2.15503
 Alpha virt. eigenvalues --    2.25540   2.25544   2.28565   2.36859   2.36862
 Alpha virt. eigenvalues --    2.50278   2.58535   2.61025   2.61028   2.73239
 Alpha virt. eigenvalues --    2.73243   3.11359   3.19304   3.89696   3.89707
 Alpha virt. eigenvalues --    4.55391   4.55393   4.56411   4.56414   4.71872
 Alpha virt. eigenvalues --    6.78902   7.80931   7.80935   7.87315   9.84222
 Alpha virt. eigenvalues --   24.08696  25.69737  25.69740  26.19768  48.37419
 Alpha virt. eigenvalues --  215.89238 290.97419 290.97421 291.041351020.86175
          Condensed to atoms (all electrons):
               1          2          3          4          5          6
     1  C    5.028555   0.410597   0.410589   0.410667   0.120815  -0.025896
     2  H    0.410597   0.499519  -0.018079  -0.018047  -0.054801  -0.013668
     3  H    0.410589  -0.018079   0.499535  -0.018063  -0.054790  -0.013664
     4  H    0.410667  -0.018047  -0.018063   0.499404  -0.054837  -0.013740
     5  Cl   0.120815  -0.054801  -0.054790  -0.054837  17.394797   0.014489
     6  Br  -0.025896  -0.013668  -0.013664  -0.013740   0.014489  35.915050
 Mulliken charges:
               1
     1  C   -0.355326
     2  H    0.194481
     3  H    0.194473
     4  H    0.194616
     5  Cl  -0.365672
     6  Br  -0.862571
 Sum of Mulliken charges =  -1.00000
 Mulliken charges with hydrogens summed into heavy atoms:
               1
     1  C    0.228243
     5  Cl  -0.365672
     6  Br  -0.862571
 Electronic spatial extent (au):  <R**2>=           1093.2685
 Charge=             -1.0000 electrons
 Dipole moment (field-independent basis, Debye):
    X=              1.6434    Y=              0.0005    Z=              0.0026  Tot=              1.6434
 Quadrupole moment (field-independent basis, Debye-Ang):
   XX=            -75.1083   YY=            -43.1886   ZZ=            -43.1875
   XY=              0.0001   XZ=              0.0017   YZ=             -0.0004
 Traceless Quadrupole moment (field-independent basis, Debye-Ang):
   XX=            -21.2802   YY=             10.6395   ZZ=             10.6406
   XY=              0.0001   XZ=              0.0017   YZ=             -0.0004
 Octapole moment (field-independent basis, Debye-Ang**2):
  XXX=            -97.0363  YYY=              0.2909  ZZZ=             -0.9696  XYY=            -17.1846
  XXY=              0.0004  XXZ=             -0.0010  XZZ=            -17.1865  YZZ=             -0.2913
  YYZ=              0.9631  XYZ=             -0.0002
 Hexadecapole moment (field-independent basis, Debye-Ang**3):
 XXXX=          -1503.8123 YYYY=            -63.8615 ZZZZ=            -63.8629 XXXY=             -0.0028
 XXXZ=             -0.0360 YYYX=              0.2798 YYYZ=              0.0006 ZZZX=             -0.9409
 ZZZY=             -0.0017 XXYY=           -231.6296 XXZZ=           -231.6301 YYZZ=            -21.2842
 XXYZ=             -0.0012 YYXZ=              0.9199 ZZXY=             -0.2792
 N-N= 1.746023648986D+02 E-N=-7.704017087829D+03  KE= 3.070195861395D+03
 Calling FoFJK, ICntrl=      2127 FMM=F ISym2X=0 I1Cent= 0 IOpClX= 0 NMat=1 NMatS=1 NMatT=0.
 -------------------------------------------------------------------
 Center     Atomic                   Forces (Hartrees/Bohr)
 Number     Number              X              Y              Z
 -------------------------------------------------------------------
      1        6           0.026797894   -0.000006713   -0.000000258
      2        1           0.000766740    0.000272680   -0.000197612
      3        1           0.000768346   -0.000303204   -0.000134779
      4        1           0.000758122    0.000036194    0.000330728
      5       17          -0.013329338   -0.000001986    0.000011000
      6       35          -0.015761764    0.000003028   -0.000009079
 -------------------------------------------------------------------
 Cartesian Forces:  Max     0.026797894 RMS     0.007980250

 GradGradGradGradGradGradGradGradGradGradGradGradGradGradGradGradGradGrad
 Berny optimization.
 Search for a local minimum.
 Step number   1 out of a maximum of    2
 All quantities printed in internal units (Hartrees-Bohrs-Radians)
 Second derivative matrix not updated -- first step.
 The second derivative matrix:
                          X1        Y1        Z1        X2        Y2
           X1           0.40486
           Y1           0.00000   0.68387
           Z1           0.00018  -0.00003   0.68396
           X2          -0.08301  -0.06049   0.04330   0.06856
           Y2          -0.05453  -0.26009   0.11858   0.05733   0.25122
           Z2           0.03903   0.11858  -0.17948  -0.04106  -0.13227
           X3          -0.08301   0.06775   0.03073   0.00721  -0.00896
           Y3           0.06108  -0.30227  -0.09426   0.00694  -0.01101
           Z3           0.02770  -0.09426  -0.13732  -0.01110   0.01907
           X4          -0.08315  -0.00728  -0.07429   0.00723   0.00615
           Y4          -0.00657  -0.09693  -0.02429   0.01278   0.01661
           Z4          -0.06700  -0.02430  -0.34258  -0.00300  -0.00312
           X5          -0.15570   0.00001   0.00009   0.00001  -0.00000
           Y5           0.00001  -0.02458   0.00000  -0.01656   0.00327
           Z5           0.00009   0.00000  -0.02458   0.01186  -0.00226
           X6           0.00000   0.00000   0.00000   0.00000   0.00000
           Y6           0.00000   0.00000   0.00000   0.00000   0.00000
           Z6           0.00000   0.00000   0.00000   0.00000   0.00000
                          Z2        X3        Y3        Z3        X4
           Z2           0.16129
           X3          -0.00954   0.06856
           Y3          -0.01252  -0.06423   0.29826
           Z3           0.02205  -0.02914   0.10514   0.11427
           X4           0.01157   0.00723  -0.00379   0.01254   0.06870
           Y4           0.02845  -0.01312   0.01095  -0.03173   0.00690
           Z4          -0.00558  -0.00046  -0.00016   0.00008   0.07046
           X5           0.00000   0.00001   0.00000   0.00000  -0.00001
           Y5          -0.00225   0.01855   0.00407   0.00179  -0.00199
           Z5           0.00172   0.00842   0.00180   0.00092  -0.02027
           X6           0.00000   0.00000   0.00000   0.00000   0.00000
           Y6           0.00000   0.00000   0.00000   0.00000   0.00000
           Z6           0.00000   0.00000   0.00000   0.00000   0.00000
                          Y4        Z4        X5        Y5        Z5
           Y4           0.06921
           Z4           0.02710   0.34323
           X5           0.00000   0.00000   0.15570
           Y5           0.00016   0.00046  -0.00001   0.01708
           Z5           0.00047   0.00486  -0.00009  -0.00000   0.01708
           X6           0.00000   0.00000   0.00000   0.00000   0.00000
           Y6           0.00000   0.00000   0.00000   0.00000   0.00000
           Z6           0.00000   0.00000   0.00000   0.00000   0.00000
                          X6        Y6        Z6
           X6           1.00000
           Y6           0.00000   1.00000
           Z6           0.00000   0.00000   1.00000
 ITU=  0
     Eigenvalues ---    0.03279   0.03279   0.06424   0.06424   0.07431
     Eigenvalues ---    0.14613   0.14614   0.28856   0.45277   0.58524
     Eigenvalues ---    0.97560   0.97574
 Angle between quadratic step and forces=  47.73 degrees.
 Linear search not attempted -- first point.
 B after Tr=    -0.030499   -0.000014   -0.000052
         Rot=    1.000000    0.000000    0.000006   -0.000001 Ang=   0.00 deg.
 Variable       Old X    -DE/DX   Delta X   Delta X   Delta X     New X
                                 (Linear)    (Quad)   (Total)
    X1        2.19271   0.02680   0.00000   0.07565   0.04515   2.23786
    Y1        0.00026  -0.00001   0.00000   0.00000  -0.00000   0.00026
    Z1        0.00214  -0.00000   0.00000   0.00005   0.00002   0.00216
    X2        1.71820   0.00077   0.00000   0.06218   0.03167   1.74987
    Y2       -1.60969   0.00027   0.00000   0.00292   0.00291  -1.60677
    Z2        1.15527  -0.00020   0.00000  -0.00202  -0.00205   1.15321
    X3        1.71816   0.00077   0.00000   0.06223   0.03172   1.74988
    Y3        1.80357  -0.00030   0.00000  -0.00323  -0.00324   1.80033
    Z3        0.82042  -0.00013   0.00000  -0.00142  -0.00145   0.81898
    X4        1.71634   0.00076   0.00000   0.06199   0.03152   1.74786
    Y4       -0.19275   0.00004   0.00000   0.00037   0.00036  -0.19239
    Z4       -1.96821   0.00033   0.00000   0.00364   0.00360  -1.96460
    X5        5.94788  -0.01333   0.00000  -0.05356  -0.08406   5.86381
    Y5       -0.00008  -0.00000   0.00000  -0.00000   0.00000  -0.00007
    Z5       -0.00036   0.00001   0.00000  -0.00000   0.00001  -0.00034
    X6       -3.03473  -0.01576   0.00000  -0.02550  -0.05600  -3.09073
    Y6       -0.00002   0.00000   0.00000  -0.00001  -0.00003  -0.00005
    Z6       -0.00026  -0.00001   0.00000  -0.00005  -0.00014  -0.00040
         Item               Value     Threshold  Converged?
 Maximum Force            0.026798     0.000450     NO 
 RMS     Force            0.007980     0.000300     NO 
 Maximum Displacement     0.084061     0.001800     NO 
 RMS     Displacement     0.029138     0.001200     NO 
 Predicted change in Energy=-4.017109D-04
 GradGradGradGradGradGradGradGradGradGradGradGradGradGradGradGradGradGrad

 1\1\GINC-FS\Force\RM062X\6-311G(d,p)\C1H3Br1Cl1(1-)\XINYAN\22-Jan-2019
 \0\\# M062X/6-311G** force nosymm int=ultrafine\\Title\\-1,1\C,1.16033
 ,0.00014,0.00113\H,0.90923,-0.85181,0.61134\H,0.90921,0.95441,0.43415\
 H,0.90825,-0.102,-1.04153\Cl,3.14748,-0.00004,-0.00019\Br,-1.60591,-0.
 00001,-0.00014\\Version=ES64L-G16RevA.03\HF=-3074.3498044\RMSD=3.317e-
 09\RMSF=7.980e-03\Dipole=0.8630922,0.0002038,0.0010871\Quadrupole=-15.
 8212859,7.9102385,7.9110475,0.0000826,0.0012685,-0.0002907\PG=C01 [X(C
 1H3Br1Cl1)]\\@


 EVANS BOLDLY PUT 50 ATM. OF ETHYLENE IN A CELL WITH 25 ATM. OF OXYGEN.
 THE APPARATUS SUBSEQUENTLY BLEW UP, BUT LUCKILY NOT BEFORE HE
 OBTAINED THE SPECTRA SHOWN IN FIGURE 8.
 A.J.MERER AND R.S.MULLIKEN, CHEM.REV. 69, 645 (1969)
 Job cpu time:       0 days  0 hours  0 minutes 37.5 seconds.
 Elapsed time:       0 days  0 hours  0 minutes  8.1 seconds.
 File lengths (MBytes):  RWF=     10 Int=      0 D2E=      0 Chk=      2 Scr=      1
 Normal termination of Gaussian 16 at Tue Jan 22 16:54:55 2019.
