 Entering Gaussian System, Link 0=g16
 Input=CH3BrCl-57.gjf
 Output=CH3BrCl-57.log
 Initial command:
 /home/xinyan/g16/l1.exe "/scratch/tmp/Gau-15690.inp" -scrdir="/scratch/tmp/"
 Entering Link 1 = /home/xinyan/g16/l1.exe PID=     15691.
  
 Copyright (c) 1988,1990,1992,1993,1995,1998,2003,2009,2016,
            Gaussian, Inc.  All Rights Reserved.
  
 This is part of the Gaussian(R) 16 program.  It is based on
 the Gaussian(R) 09 system (copyright 2009, Gaussian, Inc.),
 the Gaussian(R) 03 system (copyright 2003, Gaussian, Inc.),
 the Gaussian(R) 98 system (copyright 1998, Gaussian, Inc.),
 the Gaussian(R) 94 system (copyright 1995, Gaussian, Inc.),
 the Gaussian 92(TM) system (copyright 1992, Gaussian, Inc.),
 the Gaussian 90(TM) system (copyright 1990, Gaussian, Inc.),
 the Gaussian 88(TM) system (copyright 1988, Gaussian, Inc.),
 the Gaussian 86(TM) system (copyright 1986, Carnegie Mellon
 University), and the Gaussian 82(TM) system (copyright 1983,
 Carnegie Mellon University). Gaussian is a federally registered
 trademark of Gaussian, Inc.
  
 This software contains proprietary and confidential information,
 including trade secrets, belonging to Gaussian, Inc.
  
 This software is provided under written license and may be
 used, copied, transmitted, or stored only in accord with that
 written license.
  
 The following legend is applicable only to US Government
 contracts under FAR:
  
                    RESTRICTED RIGHTS LEGEND
  
 Use, reproduction and disclosure by the US Government is
 subject to restrictions as set forth in subparagraphs (a)
 and (c) of the Commercial Computer Software - Restricted
 Rights clause in FAR 52.227-19.
  
 Gaussian, Inc.
 340 Quinnipiac St., Bldg. 40, Wallingford CT 06492
  
  
 ---------------------------------------------------------------
 Warning -- This program may not be used in any manner that
 competes with the business of Gaussian, Inc. or will provide
 assistance to any competitor of Gaussian, Inc.  The licensee
 of this program is prohibited from giving any competitor of
 Gaussian, Inc. access to this program.  By using this program,
 the user acknowledges that Gaussian, Inc. is engaged in the
 business of creating and licensing software in the field of
 computational chemistry and represents and warrants to the
 licensee that it is not a competitor of Gaussian, Inc. and that
 it will not use this program in any manner prohibited above.
 ---------------------------------------------------------------
  

 Cite this work as:
 Gaussian 16, Revision A.03,
 M. J. Frisch, G. W. Trucks, H. B. Schlegel, G. E. Scuseria, 
 M. A. Robb, J. R. Cheeseman, G. Scalmani, V. Barone, 
 G. A. Petersson, H. Nakatsuji, X. Li, M. Caricato, A. V. Marenich, 
 J. Bloino, B. G. Janesko, R. Gomperts, B. Mennucci, H. P. Hratchian, 
 J. V. Ortiz, A. F. Izmaylov, J. L. Sonnenberg, D. Williams-Young, 
 F. Ding, F. Lipparini, F. Egidi, J. Goings, B. Peng, A. Petrone, 
 T. Henderson, D. Ranasinghe, V. G. Zakrzewski, J. Gao, N. Rega, 
 G. Zheng, W. Liang, M. Hada, M. Ehara, K. Toyota, R. Fukuda, 
 J. Hasegawa, M. Ishida, T. Nakajima, Y. Honda, O. Kitao, H. Nakai, 
 T. Vreven, K. Throssell, J. A. Montgomery, Jr., J. E. Peralta, 
 F. Ogliaro, M. J. Bearpark, J. J. Heyd, E. N. Brothers, K. N. Kudin, 
 V. N. Staroverov, T. A. Keith, R. Kobayashi, J. Normand, 
 K. Raghavachari, A. P. Rendell, J. C. Burant, S. S. Iyengar, 
 J. Tomasi, M. Cossi, J. M. Millam, M. Klene, C. Adamo, R. Cammi, 
 J. W. Ochterski, R. L. Martin, K. Morokuma, O. Farkas, 
 J. B. Foresman, and D. J. Fox, Gaussian, Inc., Wallingford CT, 2016.
 
 ******************************************
 Gaussian 16:  ES64L-G16RevA.03 25-Dec-2016
                22-Jan-2019 
 ******************************************
 %nproc=5
 Will use up to    5 processors via shared memory.
 -------------------------------------------
 # M062X/6-311G** force nosymm int=ultrafine
 -------------------------------------------
 1/10=7,30=1,38=1/1,3;
 2/12=2,15=1,17=6,18=5,40=1/2;
 3/5=4,6=6,7=101,11=2,25=1,30=1,71=1,74=-55,75=-5/1,2,3;
 4//1;
 5/5=2,38=5/2;
 6/7=2,8=2,9=2,10=2,28=1/1;
 7/29=1,30=1/1,2,3,16;
 1/10=7,30=1/3;
 99//99;
 -----
 Title
 -----
 Symbolic Z-matrix:
 Charge = -1 Multiplicity = 1
 C                     1.42183   0.00167   0.00266 
 H                     1.08266  -0.83213   0.60405 
 H                     1.08782   0.93922   0.42491 
 H                     1.08122  -0.10147  -1.0195 
 Cl                    3.25197  -0.00011  -0.0001 
 Br                   -1.69868  -0.00028  -0.00048 
 

 GradGradGradGradGradGradGradGradGradGradGradGradGradGradGradGradGradGrad
 Berny optimization.
 Initialization pass.
 Trust Radius=3.00D-01 FncErr=1.00D-07 GrdErr=1.00D-07 EigMax=2.50D+02 EigMin=1.00D-04
 Number of steps in this run=      2 maximum allowed number of steps=      2.
 GradGradGradGradGradGradGradGradGradGradGradGradGradGradGradGradGradGrad

                          Input orientation:                          
 ---------------------------------------------------------------------
 Center     Atomic      Atomic             Coordinates (Angstroms)
 Number     Number       Type             X           Y           Z
 ---------------------------------------------------------------------
      1          6           0        1.421830    0.001670    0.002660
      2          1           0        1.082660   -0.832130    0.604050
      3          1           0        1.087820    0.939220    0.424910
      4          1           0        1.081220   -0.101470   -1.019500
      5         17           0        3.251970   -0.000110   -0.000100
      6         35           0       -1.698680   -0.000280   -0.000480
 ---------------------------------------------------------------------
                    Distance matrix (angstroms):
                    1          2          3          4          5
     1  C    0.000000
     2  H    1.082557   0.000000
     3  H    1.081137   1.780393   0.000000
     4  H    1.082342   1.780388   1.780281   0.000000
     5  Cl   1.830143   2.400658   2.397190   2.400335   0.000000
     6  Br   3.120512   2.965347   2.971229   2.962513   4.950650
                    6
     6  Br   0.000000
 Symmetry turned off by external request.
 This structure is nearly, but not quite of a higher symmetry.
 Consider Symm=Loose if the higher symmetry is desired.
 Stoichiometry    CH3BrCl(1-)
 Framework group  C1[X(CH3BrCl)]
 Deg. of freedom    12
 Full point group                 C1      NOp   1
 Rotational constants (GHZ):         158.1981340           0.8061108           0.8061106
 Standard basis: 6-311G(d,p) (5D, 7F)
   106 basis functions,   195 primitive gaussians,   111 cartesian basis functions
    31 alpha electrons       31 beta electrons
       nuclear repulsion energy       168.3785171835 Hartrees.
 NAtoms=    6 NActive=    6 NUniq=    6 SFac= 1.00D+00 NAtFMM=   60 NAOKFM=F Big=F
 Integral buffers will be    131072 words long.
 Raffenetti 2 integral format.
 Two-electron integral symmetry is turned off.
 One-electron integrals computed using PRISM.
 NBasis=   106 RedAO= T EigKep=  1.11D-02  NBF=   106
 NBsUse=   106 1.00D-06 EigRej= -1.00D+00 NBFU=   106
 ExpMin= 1.03D-01 ExpMax= 4.40D+05 ExpMxC= 1.51D+04 IAcc=3 IRadAn=         5 AccDes= 0.00D+00
 Harris functional with IExCor= 1009 and IRadAn=       5 diagonalized for initial guess.
 HarFok:  IExCor= 1009 AccDes= 0.00D+00 IRadAn=         5 IDoV= 1 UseB2=F ITyADJ=14
 ICtDFT=  3500011 ScaDFX=  1.000000  1.000000  1.000000  1.000000
 FoFCou: FMM=F IPFlag=           0 FMFlag=      100000 FMFlg1=           0
         NFxFlg=           0 DoJE=T BraDBF=F KetDBF=T FulRan=T
         wScrn=  0.000000 ICntrl=       500 IOpCl=  0 I1Cent=   200000004 NGrid=           0
         NMat0=    1 NMatS0=      1 NMatT0=    0 NMatD0=    1 NMtDS0=    0 NMtDT0=    0
 Symmetry not used in FoFCou.
 Keep R1 ints in memory in canonical form, NReq=20756204.
 Requested convergence on RMS density matrix=1.00D-08 within 128 cycles.
 Requested convergence on MAX density matrix=1.00D-06.
 Requested convergence on             energy=1.00D-06.
 No special actions if energy rises.
 Integral accuracy reduced to 1.0D-05 until final iterations.
 Initial convergence to 1.0D-05 achieved.  Increase integral accuracy.
 SCF Done:  E(RM062X) =  -3074.35832536     A.U. after   13 cycles
            NFock= 13  Conv=0.45D-08     -V/T= 2.0013

 **********************************************************************

            Population analysis using the SCF density.

 **********************************************************************

 Alpha  occ. eigenvalues -- -485.03864-102.53161 -63.03078 -56.85665 -56.85660
 Alpha  occ. eigenvalues --  -56.85660 -10.44668  -9.67371  -8.71666  -7.39826
 Alpha  occ. eigenvalues --   -7.39254  -7.39254  -6.53820  -6.53789  -6.53788
 Alpha  occ. eigenvalues --   -2.57007  -2.56997  -2.56997  -2.56971  -2.56971
 Alpha  occ. eigenvalues --   -0.81059  -0.62631  -0.55172  -0.37170  -0.37125
 Alpha  occ. eigenvalues --   -0.33103  -0.23466  -0.23462  -0.09105  -0.09064
 Alpha  occ. eigenvalues --   -0.09063
 Alpha virt. eigenvalues --    0.20149   0.23520   0.28327   0.28337   0.42885
 Alpha virt. eigenvalues --    0.46168   0.46187   0.46872   0.46877   0.54103
 Alpha virt. eigenvalues --    0.56616   0.56627   0.58980   0.71488   0.74663
 Alpha virt. eigenvalues --    0.76342   0.76372   0.86252   0.95168   0.95170
 Alpha virt. eigenvalues --    0.96061   0.96079   0.99890   1.01386   1.01415
 Alpha virt. eigenvalues --    1.08018   1.08020   1.12560   1.24972   1.32263
 Alpha virt. eigenvalues --    1.32281   1.63007   1.65781   1.65809   1.86691
 Alpha virt. eigenvalues --    1.86708   1.87715   2.08449   2.17743   2.17750
 Alpha virt. eigenvalues --    2.25575   2.26234   2.26255   2.38970   2.38984
 Alpha virt. eigenvalues --    2.52139   2.53780   2.59084   2.59187   2.69144
 Alpha virt. eigenvalues --    2.69245   3.06681   3.31416   3.90661   3.90919
 Alpha virt. eigenvalues --    4.56748   4.56750   4.57465   4.57473   4.67194
 Alpha virt. eigenvalues --    6.78471   7.82065   7.82070   7.86666   9.85575
 Alpha virt. eigenvalues --   24.07762  25.69182  25.69190  26.22619  48.37257
 Alpha virt. eigenvalues --  215.90784 290.98594 290.98600 291.030301020.85534
          Condensed to atoms (all electrons):
               1          2          3          4          5          6
     1  C    5.063413   0.402948   0.403174   0.403015   0.144555  -0.023780
     2  H    0.402948   0.503417  -0.020679  -0.020749  -0.057286   0.003734
     3  H    0.403174  -0.020679   0.503725  -0.020648  -0.057665   0.003693
     4  H    0.403015  -0.020749  -0.020648   0.503136  -0.057332   0.003727
     5  Cl   0.144555  -0.057286  -0.057665  -0.057332  17.267484   0.006715
     6  Br  -0.023780   0.003734   0.003693   0.003727   0.006715  35.931977
 Mulliken charges:
               1
     1  C   -0.393326
     2  H    0.188615
     3  H    0.188398
     4  H    0.188851
     5  Cl  -0.246472
     6  Br  -0.926066
 Sum of Mulliken charges =  -1.00000
 Mulliken charges with hydrogens summed into heavy atoms:
               1
     1  C    0.172538
     5  Cl  -0.246472
     6  Br  -0.926066
 Electronic spatial extent (au):  <R**2>=           1187.9994
 Charge=             -1.0000 electrons
 Dipole moment (field-independent basis, Debye):
    X=              3.7861    Y=              0.0039    Z=              0.0056  Tot=              3.7861
 Quadrupole moment (field-independent basis, Debye-Ang):
   XX=            -72.4862   YY=            -43.1938   ZZ=            -43.1936
   XY=              0.0057   XZ=              0.0018   YZ=              0.0003
 Traceless Quadrupole moment (field-independent basis, Debye-Ang):
   XX=            -19.5284   YY=              9.7641   ZZ=              9.7643
   XY=              0.0057   XZ=              0.0018   YZ=              0.0003
 Octapole moment (field-independent basis, Debye-Ang**2):
  XXX=            -79.0240  YYY=              0.2643  ZZZ=             -0.8807  XYY=            -16.6464
  XXY=              0.0150  XXZ=             -0.0004  XZZ=            -16.6558  YZZ=             -0.2713
  YYZ=              0.8590  XYZ=              0.0037
 Hexadecapole moment (field-independent basis, Debye-Ang**3):
 XXXX=          -1577.4433 YYYY=            -63.7350 ZZZZ=            -63.7490 XXXY=             -0.0640
 XXXZ=             -0.1807 YYYX=              0.2504 YYYZ=              0.0070 ZZZX=             -1.1154
 ZZZY=             -0.0023 XXYY=           -247.9448 XXZZ=           -247.9551 YYZZ=            -21.2415
 XXYZ=              0.0040 YYXZ=              0.9586 ZZXY=             -0.3313
 N-N= 1.683785171835D+02 E-N=-7.691591914076D+03  KE= 3.070218473462D+03
 Calling FoFJK, ICntrl=      2127 FMM=F ISym2X=0 I1Cent= 0 IOpClX= 0 NMat=1 NMatS=1 NMatT=0.
 -------------------------------------------------------------------
 Center     Atomic                   Forces (Hartrees/Bohr)
 Number     Number              X              Y              Z
 -------------------------------------------------------------------
      1        6           0.000738196   -0.000733184   -0.000222739
      2        1           0.000262915    0.000287437   -0.000115179
      3        1          -0.000259714    0.000522177    0.000217149
      4        1           0.000177303    0.000086977    0.000200346
      5       17           0.002591601   -0.000118438   -0.000037978
      6       35          -0.003510300   -0.000044968   -0.000041598
 -------------------------------------------------------------------
 Cartesian Forces:  Max     0.003510300 RMS     0.001075519

 GradGradGradGradGradGradGradGradGradGradGradGradGradGradGradGradGradGrad
 Berny optimization.
 Search for a local minimum.
 Step number   1 out of a maximum of    2
 All quantities printed in internal units (Hartrees-Bohrs-Radians)
 Second derivative matrix not updated -- first step.
 The second derivative matrix:
                          X1        Y1        Z1        X2        Y2
           X1           0.54532
           Y1           0.00041   0.64180
           Z1           0.00030   0.00070   0.64082
           X2          -0.10225  -0.07858   0.05661   0.08563
           Y2          -0.06815  -0.24139   0.11571   0.07261   0.23570
           Z2           0.04912   0.11579  -0.16452  -0.05230  -0.12705
           X3          -0.10172   0.08778   0.03953   0.00826  -0.01108
           Y3           0.07608  -0.28579  -0.09216   0.00862  -0.01211
           Z3           0.03426  -0.09217  -0.12267  -0.01261   0.01813
           X4          -0.10256  -0.00981  -0.09675   0.00836   0.00662
           Y4          -0.00850  -0.08346  -0.02427   0.01482   0.01303
           Z4          -0.08397  -0.02434  -0.32244  -0.00428  -0.00352
           X5          -0.23879   0.00020   0.00031   0.00000  -0.00000
           Y5           0.00016  -0.03115   0.00002  -0.01747   0.00477
           Z5           0.00030   0.00002  -0.03118   0.01259  -0.00327
           X6           0.00000   0.00000   0.00000   0.00000   0.00000
           Y6           0.00000   0.00000   0.00000   0.00000   0.00000
           Z6           0.00000   0.00000   0.00000   0.00000   0.00000
                          Z2        X3        Y3        Z3        X4
           Z2           0.15123
           X3          -0.01070   0.08514
           Y3          -0.01193  -0.08099   0.28419
           Z3           0.01803  -0.03647   0.10110   0.10524
           X4           0.01389   0.00829  -0.00372   0.01482   0.08594
           Y4           0.02642  -0.01541   0.00784  -0.02959   0.00908
           Z4          -0.00729  -0.00121   0.00045  -0.00195   0.08945
           X5           0.00000   0.00003   0.00001   0.00000  -0.00003
           Y5          -0.00323   0.01969   0.00588   0.00252  -0.00217
           Z5           0.00256   0.00886   0.00254   0.00137  -0.02142
           X6           0.00000   0.00000   0.00000   0.00000   0.00000
           Y6           0.00000   0.00000   0.00000   0.00000   0.00000
           Z6           0.00000   0.00000   0.00000   0.00000   0.00000
                          Y4        Z4        X5        Y5        Z5
           Y4           0.06229
           Z4           0.02672   0.32462
           X5           0.00000   0.00001   0.23879
           Y5           0.00030   0.00069  -0.00021   0.02020
           Z5           0.00071   0.00706  -0.00033   0.00000   0.02019
           X6           0.00000   0.00000   0.00000   0.00000   0.00000
           Y6           0.00000   0.00000   0.00000   0.00000   0.00000
           Z6           0.00000   0.00000   0.00000   0.00000   0.00000
                          X6        Y6        Z6
           X6           1.00000
           Y6           0.00000   1.00000
           Z6           0.00000   0.00000   1.00000
 ITU=  0
     Eigenvalues ---    0.02706   0.02706   0.07040   0.07046   0.09116
     Eigenvalues ---    0.13362   0.13382   0.28807   0.47512   0.76657
     Eigenvalues ---    0.92635   0.92915
 Angle between quadratic step and forces=  29.28 degrees.
 Linear search not attempted -- first point.
 B after Tr=    -0.000216   -0.000247   -0.000269
         Rot=    1.000000    0.000001   -0.000008    0.000058 Ang=   0.01 deg.
 Variable       Old X    -DE/DX   Delta X   Delta X   Delta X     New X
                                 (Linear)    (Quad)   (Total)
    X1        2.68687   0.00074   0.00000   0.00274   0.00252   2.68939
    Y1        0.00316  -0.00073   0.00000   0.00065   0.00009   0.00325
    Z1        0.00503  -0.00022   0.00000   0.00043   0.00012   0.00514
    X2        2.04593   0.00026   0.00000   0.00091   0.00053   2.04646
    Y2       -1.57250   0.00029   0.00000   0.00180   0.00132  -1.57118
    Z2        1.14149  -0.00012   0.00000  -0.00028  -0.00058   1.14091
    X3        2.05568  -0.00026   0.00000  -0.00363  -0.00363   2.05205
    Y3        1.77487   0.00052   0.00000   0.00067   0.00018   1.77505
    Z3        0.80296   0.00022   0.00000   0.00051   0.00020   0.80317
    X4        2.04321   0.00018   0.00000  -0.00030  -0.00057   2.04264
    Y4       -0.19175   0.00009   0.00000   0.00083   0.00035  -0.19140
    Z4       -1.92658   0.00020   0.00000   0.00180   0.00150  -1.92507
    X5        6.14533   0.00259   0.00000   0.00726   0.00704   6.15237
    Y5       -0.00021  -0.00012   0.00000  -0.00090  -0.00186  -0.00207
    Z5       -0.00019  -0.00004   0.00000  -0.00047  -0.00083  -0.00102
    X6       -3.21004  -0.00351   0.00000  -0.00568  -0.00590  -3.21594
    Y6       -0.00053  -0.00004   0.00000  -0.00020  -0.00008  -0.00061
    Z6       -0.00091  -0.00004   0.00000  -0.00019  -0.00041  -0.00132
         Item               Value     Threshold  Converged?
 Maximum Force            0.003510     0.000450     NO 
 RMS     Force            0.001076     0.000300     NO 
 Maximum Displacement     0.007040     0.001800     NO 
 RMS     Displacement     0.002509     0.001200     NO 
 Predicted change in Energy=-2.012732D-05
 GradGradGradGradGradGradGradGradGradGradGradGradGradGradGradGradGradGrad

 1\1\GINC-FS\Force\RM062X\6-311G(d,p)\C1H3Br1Cl1(1-)\XINYAN\22-Jan-2019
 \0\\# M062X/6-311G** force nosymm int=ultrafine\\Title\\-1,1\C,1.42183
 ,0.00167,0.00266\H,1.08266,-0.83213,0.60405\H,1.08782,0.93922,0.42491\
 H,1.08122,-0.10147,-1.0195\Cl,3.25197,-0.00011,-0.0001\Br,-1.69868,-0.
 00028,-0.00048\\Version=ES64L-G16RevA.03\HF=-3074.3583254\RMSD=4.469e-
 09\RMSF=1.076e-03\Dipole=1.7253869,0.0016545,0.0024261\Quadrupole=-14.
 5188663,7.2593415,7.2595248,0.0042405,0.0013474,0.0002039\PG=C01 [X(C1
 H3Br1Cl1)]\\@


 THERE'S A SUCKER BORN EVERY MINUTE

              -- PHINEAS TAYLOR (P.T.) BARNUM
 Job cpu time:       0 days  0 hours  0 minutes 35.0 seconds.
 Elapsed time:       0 days  0 hours  0 minutes  7.8 seconds.
 File lengths (MBytes):  RWF=     10 Int=      0 D2E=      0 Chk=      2 Scr=      1
 Normal termination of Gaussian 16 at Tue Jan 22 16:57:11 2019.
