 Entering Gaussian System, Link 0=g16
 Input=CH3BrCl-14.gjf
 Output=CH3BrCl-14.log
 Initial command:
 /home/xinyan/g16/l1.exe "/scratch/tmp/Gau-12678.inp" -scrdir="/scratch/tmp/"
 Entering Link 1 = /home/xinyan/g16/l1.exe PID=     12679.
  
 Copyright (c) 1988,1990,1992,1993,1995,1998,2003,2009,2016,
            Gaussian, Inc.  All Rights Reserved.
  
 This is part of the Gaussian(R) 16 program.  It is based on
 the Gaussian(R) 09 system (copyright 2009, Gaussian, Inc.),
 the Gaussian(R) 03 system (copyright 2003, Gaussian, Inc.),
 the Gaussian(R) 98 system (copyright 1998, Gaussian, Inc.),
 the Gaussian(R) 94 system (copyright 1995, Gaussian, Inc.),
 the Gaussian 92(TM) system (copyright 1992, Gaussian, Inc.),
 the Gaussian 90(TM) system (copyright 1990, Gaussian, Inc.),
 the Gaussian 88(TM) system (copyright 1988, Gaussian, Inc.),
 the Gaussian 86(TM) system (copyright 1986, Carnegie Mellon
 University), and the Gaussian 82(TM) system (copyright 1983,
 Carnegie Mellon University). Gaussian is a federally registered
 trademark of Gaussian, Inc.
  
 This software contains proprietary and confidential information,
 including trade secrets, belonging to Gaussian, Inc.
  
 This software is provided under written license and may be
 used, copied, transmitted, or stored only in accord with that
 written license.
  
 The following legend is applicable only to US Government
 contracts under FAR:
  
                    RESTRICTED RIGHTS LEGEND
  
 Use, reproduction and disclosure by the US Government is
 subject to restrictions as set forth in subparagraphs (a)
 and (c) of the Commercial Computer Software - Restricted
 Rights clause in FAR 52.227-19.
  
 Gaussian, Inc.
 340 Quinnipiac St., Bldg. 40, Wallingford CT 06492
  
  
 ---------------------------------------------------------------
 Warning -- This program may not be used in any manner that
 competes with the business of Gaussian, Inc. or will provide
 assistance to any competitor of Gaussian, Inc.  The licensee
 of this program is prohibited from giving any competitor of
 Gaussian, Inc. access to this program.  By using this program,
 the user acknowledges that Gaussian, Inc. is engaged in the
 business of creating and licensing software in the field of
 computational chemistry and represents and warrants to the
 licensee that it is not a competitor of Gaussian, Inc. and that
 it will not use this program in any manner prohibited above.
 ---------------------------------------------------------------
  

 Cite this work as:
 Gaussian 16, Revision A.03,
 M. J. Frisch, G. W. Trucks, H. B. Schlegel, G. E. Scuseria, 
 M. A. Robb, J. R. Cheeseman, G. Scalmani, V. Barone, 
 G. A. Petersson, H. Nakatsuji, X. Li, M. Caricato, A. V. Marenich, 
 J. Bloino, B. G. Janesko, R. Gomperts, B. Mennucci, H. P. Hratchian, 
 J. V. Ortiz, A. F. Izmaylov, J. L. Sonnenberg, D. Williams-Young, 
 F. Ding, F. Lipparini, F. Egidi, J. Goings, B. Peng, A. Petrone, 
 T. Henderson, D. Ranasinghe, V. G. Zakrzewski, J. Gao, N. Rega, 
 G. Zheng, W. Liang, M. Hada, M. Ehara, K. Toyota, R. Fukuda, 
 J. Hasegawa, M. Ishida, T. Nakajima, Y. Honda, O. Kitao, H. Nakai, 
 T. Vreven, K. Throssell, J. A. Montgomery, Jr., J. E. Peralta, 
 F. Ogliaro, M. J. Bearpark, J. J. Heyd, E. N. Brothers, K. N. Kudin, 
 V. N. Staroverov, T. A. Keith, R. Kobayashi, J. Normand, 
 K. Raghavachari, A. P. Rendell, J. C. Burant, S. S. Iyengar, 
 J. Tomasi, M. Cossi, J. M. Millam, M. Klene, C. Adamo, R. Cammi, 
 J. W. Ochterski, R. L. Martin, K. Morokuma, O. Farkas, 
 J. B. Foresman, and D. J. Fox, Gaussian, Inc., Wallingford CT, 2016.
 
 ******************************************
 Gaussian 16:  ES64L-G16RevA.03 25-Dec-2016
                22-Jan-2019 
 ******************************************
 %nproc=5
 Will use up to    5 processors via shared memory.
 -------------------------------------------
 # M062X/6-311G** force nosymm int=ultrafine
 -------------------------------------------
 1/10=7,30=1,38=1/1,3;
 2/12=2,15=1,17=6,18=5,40=1/2;
 3/5=4,6=6,7=101,11=2,25=1,30=1,71=1,74=-55,75=-5/1,2,3;
 4//1;
 5/5=2,38=5/2;
 6/7=2,8=2,9=2,10=2,28=1/1;
 7/29=1,30=1/1,2,3,16;
 1/10=7,30=1/3;
 99//99;
 -----
 Title
 -----
 Symbolic Z-matrix:
 Charge = -1 Multiplicity = 1
 C                     0.51973   0.0004    0.00118 
 H                     0.79699  -0.84677   0.60833 
 H                     0.79681   0.94969   0.43163 
 H                     0.79821  -0.10149  -1.03574 
 Cl                    3.26341  -0.0001   -0.0003 
 Br                   -1.5556   -0.00003  -0.0001 
 

 GradGradGradGradGradGradGradGradGradGradGradGradGradGradGradGradGradGrad
 Berny optimization.
 Initialization pass.
 Trust Radius=3.00D-01 FncErr=1.00D-07 GrdErr=1.00D-07 EigMax=2.50D+02 EigMin=1.00D-04
 Number of steps in this run=      2 maximum allowed number of steps=      2.
 GradGradGradGradGradGradGradGradGradGradGradGradGradGradGradGradGradGrad

                          Input orientation:                          
 ---------------------------------------------------------------------
 Center     Atomic      Atomic             Coordinates (Angstroms)
 Number     Number       Type             X           Y           Z
 ---------------------------------------------------------------------
      1          6           0        0.519730    0.000400    0.001180
      2          1           0        0.796990   -0.846770    0.608330
      3          1           0        0.796810    0.949690    0.431630
      4          1           0        0.798210   -0.101490   -1.035740
      5         17           0        3.263410   -0.000100   -0.000300
      6         35           0       -1.555600   -0.000030   -0.000100
 ---------------------------------------------------------------------
                    Distance matrix (angstroms):
                    1          2          3          4          5
     1  C    0.000000
     2  H    1.078518   0.000000
     3  H    1.078523   1.805129   0.000000
     4  H    1.078488   1.805107   1.805036   0.000000
     5  Cl   2.743680   2.677780   2.678205   2.675748   0.000000
     6  Br   2.075330   2.573293   2.573362   2.573571   4.819010
                    6
     6  Br   0.000000
 Symmetry turned off by external request.
 This structure is nearly, but not quite of a higher symmetry.
 Consider Symm=Loose if the higher symmetry is desired.
 Stoichiometry    CH3BrCl(1-)
 Framework group  C1[X(CH3BrCl)]
 Deg. of freedom    12
 Full point group                 C1      NOp   1
 Rotational constants (GHZ):         153.8970399           0.8863311           0.8863309
 Standard basis: 6-311G(d,p) (5D, 7F)
   106 basis functions,   195 primitive gaussians,   111 cartesian basis functions
    31 alpha electrons       31 beta electrons
       nuclear repulsion energy       179.9400497981 Hartrees.
 NAtoms=    6 NActive=    6 NUniq=    6 SFac= 1.00D+00 NAtFMM=   60 NAOKFM=F Big=F
 Integral buffers will be    131072 words long.
 Raffenetti 2 integral format.
 Two-electron integral symmetry is turned off.
 One-electron integrals computed using PRISM.
 NBasis=   106 RedAO= T EigKep=  1.04D-02  NBF=   106
 NBsUse=   106 1.00D-06 EigRej= -1.00D+00 NBFU=   106
 ExpMin= 1.03D-01 ExpMax= 4.40D+05 ExpMxC= 1.51D+04 IAcc=3 IRadAn=         5 AccDes= 0.00D+00
 Harris functional with IExCor= 1009 and IRadAn=       5 diagonalized for initial guess.
 HarFok:  IExCor= 1009 AccDes= 0.00D+00 IRadAn=         5 IDoV= 1 UseB2=F ITyADJ=14
 ICtDFT=  3500011 ScaDFX=  1.000000  1.000000  1.000000  1.000000
 FoFCou: FMM=F IPFlag=           0 FMFlag=      100000 FMFlg1=           0
         NFxFlg=           0 DoJE=T BraDBF=F KetDBF=T FulRan=T
         wScrn=  0.000000 ICntrl=       500 IOpCl=  0 I1Cent=   200000004 NGrid=           0
         NMat0=    1 NMatS0=      1 NMatT0=    0 NMatD0=    1 NMtDS0=    0 NMtDT0=    0
 Symmetry not used in FoFCou.
 Keep R1 ints in memory in canonical form, NReq=20756204.
 Requested convergence on RMS density matrix=1.00D-08 within 128 cycles.
 Requested convergence on MAX density matrix=1.00D-06.
 Requested convergence on             energy=1.00D-06.
 No special actions if energy rises.
 Integral accuracy reduced to 1.0D-05 until final iterations.
 Initial convergence to 1.0D-05 achieved.  Increase integral accuracy.
 SCF Done:  E(RM062X) =  -3074.34849116     A.U. after   14 cycles
            NFock= 14  Conv=0.39D-08     -V/T= 2.0014

 **********************************************************************

            Population analysis using the SCF density.

 **********************************************************************

 Alpha  occ. eigenvalues -- -485.17510-102.37082 -63.16725 -56.99433 -56.99233
 Alpha  occ. eigenvalues --  -56.99233 -10.44481  -9.51282  -8.85394  -7.23408
 Alpha  occ. eigenvalues --   -7.23364  -7.23364  -6.68034  -6.67246  -6.67246
 Alpha  occ. eigenvalues --   -2.71185  -2.70921  -2.70921  -2.70222  -2.70222
 Alpha  occ. eigenvalues --   -0.73312  -0.62349  -0.59161  -0.36070  -0.36068
 Alpha  occ. eigenvalues --   -0.27833  -0.19902  -0.19901  -0.11347  -0.11346
 Alpha  occ. eigenvalues --   -0.11053
 Alpha virt. eigenvalues --    0.16815   0.23667   0.29052   0.29059   0.44323
 Alpha virt. eigenvalues --    0.46079   0.46082   0.47809   0.47811   0.53391
 Alpha virt. eigenvalues --    0.56218   0.56225   0.58775   0.68967   0.76555
 Alpha virt. eigenvalues --    0.76561   0.78446   0.83025   0.83027   0.86333
 Alpha virt. eigenvalues --    0.86335   0.90719   1.01729   1.10906   1.22474
 Alpha virt. eigenvalues --    1.22475   1.22803   1.22804   1.29131   1.29133
 Alpha virt. eigenvalues --    1.36155   1.61912   1.65607   1.65613   1.80325
 Alpha virt. eigenvalues --    1.86875   1.86877   2.06390   2.10004   2.10007
 Alpha virt. eigenvalues --    2.27714   2.28429   2.28432   2.43187   2.43190
 Alpha virt. eigenvalues --    2.50946   2.58650   2.61028   2.61035   2.72111
 Alpha virt. eigenvalues --    2.72116   3.11473   3.14707   3.89481   3.89487
 Alpha virt. eigenvalues --    4.43993   4.43995   4.52447   4.52447   4.79497
 Alpha virt. eigenvalues --    6.70141   7.71073   7.71073   7.81786   9.89488
 Alpha virt. eigenvalues --   24.09257  25.78654  25.78662  26.01037  48.27458
 Alpha virt. eigenvalues --  215.93530 290.85889 290.85889 290.989291020.76679
          Condensed to atoms (all electrons):
               1          2          3          4          5          6
     1  C    5.013762   0.412374   0.412354   0.412418  -0.009214   0.135758
     2  H    0.412374   0.490468  -0.016899  -0.016875  -0.016489  -0.049223
     3  H    0.412354  -0.016899   0.490512  -0.016888  -0.016472  -0.049208
     4  H    0.412418  -0.016875  -0.016888   0.490299  -0.016551  -0.049208
     5  Cl  -0.009214  -0.016489  -0.016472  -0.016551  17.938217   0.012136
     6  Br   0.135758  -0.049223  -0.049208  -0.049208   0.012136  35.320716
 Mulliken charges:
               1
     1  C   -0.377452
     2  H    0.196644
     3  H    0.196601
     4  H    0.196805
     5  Cl  -0.891628
     6  Br  -0.320970
 Sum of Mulliken charges =  -1.00000
 Mulliken charges with hydrogens summed into heavy atoms:
               1
     1  C    0.212598
     5  Cl  -0.891628
     6  Br  -0.320970
 Electronic spatial extent (au):  <R**2>=           1107.4237
 Charge=             -1.0000 electrons
 Dipole moment (field-independent basis, Debye):
    X=            -10.1879    Y=              0.0010    Z=              0.0029  Tot=             10.1879
 Quadrupole moment (field-independent basis, Debye-Ang):
   XX=            -94.4211   YY=            -43.0428   ZZ=            -43.0422
   XY=              0.0018   XZ=              0.0047   YZ=             -0.0003
 Traceless Quadrupole moment (field-independent basis, Debye-Ang):
   XX=            -34.2524   YY=             17.1259   ZZ=             17.1265
   XY=              0.0018   XZ=              0.0047   YZ=             -0.0003
 Octapole moment (field-independent basis, Debye-Ang**2):
  XXX=           -235.2397  YYY=              0.2900  ZZZ=             -0.9645  XYY=            -25.6531
  XXY=              0.0021  XXZ=              0.0058  XZZ=            -25.6513  YZZ=             -0.2916
  YYZ=              0.9607  XYZ=             -0.0002
 Hexadecapole moment (field-independent basis, Debye-Ang**3):
 XXXX=          -1910.7361 YYYY=            -63.1799 ZZZZ=            -63.1831 XXXY=              0.0236
 XXXZ=              0.0705 YYYX=              0.2445 YYYZ=              0.0013 ZZZX=             -0.7498
 ZZZY=             -0.0021 XXYY=           -247.6213 XXZZ=           -247.6163 YYZZ=            -21.0573
 XXYZ=             -0.0011 YYXZ=              0.7861 ZZXY=             -0.2323
 N-N= 1.799400497981D+02 E-N=-7.712709411911D+03  KE= 3.070201075704D+03
 Calling FoFJK, ICntrl=      2127 FMM=F ISym2X=0 I1Cent= 0 IOpClX= 0 NMat=1 NMatS=1 NMatT=0.
 -------------------------------------------------------------------
 Center     Atomic                   Forces (Hartrees/Bohr)
 Number     Number              X              Y              Z
 -------------------------------------------------------------------
      1        6          -0.014609612   -0.000005290    0.000011787
      2        1          -0.000589509    0.000103327   -0.000069305
      3        1          -0.000590994   -0.000101154   -0.000047385
      4        1          -0.000582867    0.000009313    0.000119491
      5       17           0.010423267   -0.000005025   -0.000015513
      6       35           0.005949715   -0.000001171    0.000000925
 -------------------------------------------------------------------
 Cartesian Forces:  Max     0.014609612 RMS     0.004463205

 GradGradGradGradGradGradGradGradGradGradGradGradGradGradGradGradGradGrad
 Berny optimization.
 Search for a local minimum.
 Step number   1 out of a maximum of    2
 All quantities printed in internal units (Hartrees-Bohrs-Radians)
 Second derivative matrix not updated -- first step.
 The second derivative matrix:
                          X1        Y1        Z1        X2        Y2
           X1           0.38222
           Y1          -0.00005   0.66877
           Z1          -0.00028  -0.00002   0.66881
           X2          -0.08802   0.06767  -0.04846   0.07325
           Y2           0.05920  -0.25508   0.11791  -0.06239   0.24739
           Z2          -0.04240   0.11792  -0.17508   0.04469  -0.13106
           X3          -0.08799  -0.07577  -0.03433   0.00737   0.00962
           Y3          -0.06628  -0.29714  -0.09368  -0.00747  -0.01133
           Z3          -0.03003  -0.09368  -0.13305   0.01173   0.01879
           X4          -0.08821   0.00817   0.08313   0.00740  -0.00643
           Y4           0.00715  -0.09295  -0.02422  -0.01356   0.01556
           Z4           0.07277  -0.02422  -0.33707   0.00332  -0.00326
           X5           0.00000   0.00000   0.00000   0.00000   0.00000
           Y5           0.00000   0.00000   0.00000   0.00000   0.00000
           Z5           0.00000   0.00000   0.00000   0.00000   0.00000
           X6          -0.11801  -0.00002  -0.00006   0.00000   0.00000
           Y6          -0.00002  -0.02360  -0.00000   0.01575   0.00346
           Z6          -0.00006  -0.00000  -0.02361  -0.01128  -0.00238
                          Z2        X3        Y3        Z3        X4
           Z2           0.15846
           X3           0.01006   0.07322
           Y3          -0.01239   0.06986   0.29413
           Z3           0.02085   0.03166   0.10412   0.11174
           X4          -0.01235   0.00739   0.00390  -0.01336   0.07344
           Y4           0.02790   0.01394   0.01003  -0.03110  -0.00754
           Z4          -0.00606   0.00061   0.00006  -0.00053  -0.07670
           X5           0.00000   0.00000   0.00000   0.00000   0.00000
           Y5           0.00000   0.00000   0.00000   0.00000   0.00000
           Z5           0.00000   0.00000   0.00000   0.00000   0.00000
           X6          -0.00000   0.00001  -0.00000  -0.00000  -0.00001
           Y6          -0.00237  -0.01765   0.00430   0.00188   0.00189
           Z6           0.00183  -0.00800   0.00189   0.00098   0.01927
                          Y4        Z4        X5        Y5        Z5
           Y4           0.06718
           Z4           0.02692   0.33853
           X5           0.00000   0.00000   1.00000
           Y5           0.00000   0.00000   0.00000   1.00000
           Z5           0.00000   0.00000   0.00000   0.00000   1.00000
           X6          -0.00000  -0.00000   0.00000   0.00000   0.00000
           Y6           0.00018   0.00049   0.00000   0.00000   0.00000
           Z6           0.00049   0.00513   0.00000   0.00000   0.00000
                          X6        Y6        Z6
           X6           0.11801
           Y6           0.00002   0.01567
           Z6           0.00006  -0.00000   0.01567
 ITU=  0
     Eigenvalues ---    0.05128   0.05128   0.05721   0.08532   0.08532
     Eigenvalues ---    0.14483   0.14483   0.26034   0.56639   0.73565
     Eigenvalues ---    0.97171   0.97178
 Angle between quadratic step and forces=  52.90 degrees.
 Linear search not attempted -- first point.
 B after Tr=     0.026305   -0.000007   -0.000014
         Rot=    1.000000    0.000000   -0.000003    0.000001 Ang=  -0.00 deg.
 Variable       Old X    -DE/DX   Delta X   Delta X   Delta X     New X
                                 (Linear)    (Quad)   (Total)
    X1        0.98215  -0.01461   0.00000  -0.05662  -0.03031   0.95183
    Y1        0.00076  -0.00001   0.00000   0.00001   0.00000   0.00076
    Z1        0.00223   0.00001   0.00000   0.00005   0.00003   0.00226
    X2        1.50609  -0.00059   0.00000  -0.05174  -0.02543   1.48066
    Y2       -1.60016   0.00010   0.00000   0.00115   0.00114  -1.59902
    Z2        1.14958  -0.00007   0.00000  -0.00078  -0.00080   1.14878
    X3        1.50575  -0.00059   0.00000  -0.05180  -0.02549   1.48027
    Y3        1.79465  -0.00010   0.00000  -0.00122  -0.00123   1.79342
    Z3        0.81566  -0.00005   0.00000  -0.00052  -0.00054   0.81512
    X4        1.50840  -0.00058   0.00000  -0.05165  -0.02536   1.48304
    Y4       -0.19179   0.00001   0.00000   0.00015   0.00014  -0.19165
    Z4       -1.95726   0.00012   0.00000   0.00144   0.00142  -1.95584
    X5        6.16695   0.01042   0.00000   0.01420   0.04051   6.20746
    Y5       -0.00019  -0.00001   0.00000  -0.00002  -0.00005  -0.00024
    Z5       -0.00057  -0.00002   0.00000  -0.00006  -0.00011  -0.00067
    X6       -2.93966   0.00595   0.00000   0.03977   0.06608  -2.87358
    Y6       -0.00006  -0.00000   0.00000  -0.00000  -0.00000  -0.00006
    Z6       -0.00019   0.00000   0.00000  -0.00001  -0.00000  -0.00019
         Item               Value     Threshold  Converged?
 Maximum Force            0.014610     0.000450     NO 
 RMS     Force            0.004463     0.000300     NO 
 Maximum Displacement     0.066080     0.001800     NO 
 RMS     Displacement     0.022201     0.001200     NO 
 Predicted change in Energy=-6.783880D-05
 GradGradGradGradGradGradGradGradGradGradGradGradGradGradGradGradGradGrad

 1\1\GINC-FS\Force\RM062X\6-311G(d,p)\C1H3Br1Cl1(1-)\XINYAN\22-Jan-2019
 \0\\# M062X/6-311G** force nosymm int=ultrafine\\Title\\-1,1\C,0.51973
 ,0.0004,0.00118\H,0.79699,-0.84677,0.60833\H,0.79681,0.94969,0.43163\H
 ,0.79821,-0.10149,-1.03574\Cl,3.26341,-0.0001,-0.0003\Br,-1.5556,-0.00
 003,-0.0001\\Version=ES64L-G16RevA.03\HF=-3074.3484912\RMSD=3.932e-09\
 RMSF=4.463e-03\Dipole=-3.8055491,0.0004333,0.0012069\Quadrupole=-25.46
 58005,12.7326811,12.7331194,0.0013264,0.0034844,-0.0002292\PG=C01 [X(C
 1H3Br1Cl1)]\\@


 Make no judgements where you have no compassion.
                               -- Anne McCaffrey
 Job cpu time:       0 days  0 hours  0 minutes 45.2 seconds.
 Elapsed time:       0 days  0 hours  0 minutes  9.8 seconds.
 File lengths (MBytes):  RWF=     10 Int=      0 D2E=      0 Chk=      2 Scr=      1
 Normal termination of Gaussian 16 at Tue Jan 22 16:51:02 2019.
