 Entering Gaussian System, Link 0=g16
 Input=CH3BrCl-62.gjf
 Output=CH3BrCl-62.log
 Initial command:
 /home/xinyan/g16/l1.exe "/scratch/tmp/Gau-16020.inp" -scrdir="/scratch/tmp/"
 Entering Link 1 = /home/xinyan/g16/l1.exe PID=     16021.
  
 Copyright (c) 1988,1990,1992,1993,1995,1998,2003,2009,2016,
            Gaussian, Inc.  All Rights Reserved.
  
 This is part of the Gaussian(R) 16 program.  It is based on
 the Gaussian(R) 09 system (copyright 2009, Gaussian, Inc.),
 the Gaussian(R) 03 system (copyright 2003, Gaussian, Inc.),
 the Gaussian(R) 98 system (copyright 1998, Gaussian, Inc.),
 the Gaussian(R) 94 system (copyright 1995, Gaussian, Inc.),
 the Gaussian 92(TM) system (copyright 1992, Gaussian, Inc.),
 the Gaussian 90(TM) system (copyright 1990, Gaussian, Inc.),
 the Gaussian 88(TM) system (copyright 1988, Gaussian, Inc.),
 the Gaussian 86(TM) system (copyright 1986, Carnegie Mellon
 University), and the Gaussian 82(TM) system (copyright 1983,
 Carnegie Mellon University). Gaussian is a federally registered
 trademark of Gaussian, Inc.
  
 This software contains proprietary and confidential information,
 including trade secrets, belonging to Gaussian, Inc.
  
 This software is provided under written license and may be
 used, copied, transmitted, or stored only in accord with that
 written license.
  
 The following legend is applicable only to US Government
 contracts under FAR:
  
                    RESTRICTED RIGHTS LEGEND
  
 Use, reproduction and disclosure by the US Government is
 subject to restrictions as set forth in subparagraphs (a)
 and (c) of the Commercial Computer Software - Restricted
 Rights clause in FAR 52.227-19.
  
 Gaussian, Inc.
 340 Quinnipiac St., Bldg. 40, Wallingford CT 06492
  
  
 ---------------------------------------------------------------
 Warning -- This program may not be used in any manner that
 competes with the business of Gaussian, Inc. or will provide
 assistance to any competitor of Gaussian, Inc.  The licensee
 of this program is prohibited from giving any competitor of
 Gaussian, Inc. access to this program.  By using this program,
 the user acknowledges that Gaussian, Inc. is engaged in the
 business of creating and licensing software in the field of
 computational chemistry and represents and warrants to the
 licensee that it is not a competitor of Gaussian, Inc. and that
 it will not use this program in any manner prohibited above.
 ---------------------------------------------------------------
  

 Cite this work as:
 Gaussian 16, Revision A.03,
 M. J. Frisch, G. W. Trucks, H. B. Schlegel, G. E. Scuseria, 
 M. A. Robb, J. R. Cheeseman, G. Scalmani, V. Barone, 
 G. A. Petersson, H. Nakatsuji, X. Li, M. Caricato, A. V. Marenich, 
 J. Bloino, B. G. Janesko, R. Gomperts, B. Mennucci, H. P. Hratchian, 
 J. V. Ortiz, A. F. Izmaylov, J. L. Sonnenberg, D. Williams-Young, 
 F. Ding, F. Lipparini, F. Egidi, J. Goings, B. Peng, A. Petrone, 
 T. Henderson, D. Ranasinghe, V. G. Zakrzewski, J. Gao, N. Rega, 
 G. Zheng, W. Liang, M. Hada, M. Ehara, K. Toyota, R. Fukuda, 
 J. Hasegawa, M. Ishida, T. Nakajima, Y. Honda, O. Kitao, H. Nakai, 
 T. Vreven, K. Throssell, J. A. Montgomery, Jr., J. E. Peralta, 
 F. Ogliaro, M. J. Bearpark, J. J. Heyd, E. N. Brothers, K. N. Kudin, 
 V. N. Staroverov, T. A. Keith, R. Kobayashi, J. Normand, 
 K. Raghavachari, A. P. Rendell, J. C. Burant, S. S. Iyengar, 
 J. Tomasi, M. Cossi, J. M. Millam, M. Klene, C. Adamo, R. Cammi, 
 J. W. Ochterski, R. L. Martin, K. Morokuma, O. Farkas, 
 J. B. Foresman, and D. J. Fox, Gaussian, Inc., Wallingford CT, 2016.
 
 ******************************************
 Gaussian 16:  ES64L-G16RevA.03 25-Dec-2016
                22-Jan-2019 
 ******************************************
 %nproc=5
 Will use up to    5 processors via shared memory.
 -------------------------------------------
 # M062X/6-311G** force nosymm int=ultrafine
 -------------------------------------------
 1/10=7,30=1,38=1/1,3;
 2/12=2,15=1,17=6,18=5,40=1/2;
 3/5=4,6=6,7=101,11=2,25=1,30=1,71=1,74=-55,75=-5/1,2,3;
 4//1;
 5/5=2,38=5/2;
 6/7=2,8=2,9=2,10=2,28=1/1;
 7/29=1,30=1/1,2,3,16;
 1/10=7,30=1/3;
 99//99;
 -----
 Title
 -----
 Symbolic Z-matrix:
 Charge = -1 Multiplicity = 1
 C                     1.47177   0.00628   0.00601 
 H                     1.13069  -0.82022   0.61599 
 H                     1.13813   0.94927   0.41985 
 H                     1.12749  -0.10556  -1.01401 
 Cl                    3.30334  -0.00075  -0.00042 
 Br                   -1.73088  -0.00092  -0.00101 
 

 GradGradGradGradGradGradGradGradGradGradGradGradGradGradGradGradGradGrad
 Berny optimization.
 Initialization pass.
 Trust Radius=3.00D-01 FncErr=1.00D-07 GrdErr=1.00D-07 EigMax=2.50D+02 EigMin=1.00D-04
 Number of steps in this run=      2 maximum allowed number of steps=      2.
 GradGradGradGradGradGradGradGradGradGradGradGradGradGradGradGradGradGrad

                          Input orientation:                          
 ---------------------------------------------------------------------
 Center     Atomic      Atomic             Coordinates (Angstroms)
 Number     Number       Type             X           Y           Z
 ---------------------------------------------------------------------
      1          6           0        1.471770    0.006280    0.006010
      2          1           0        1.130690   -0.820220    0.615990
      3          1           0        1.138130    0.949270    0.419850
      4          1           0        1.127490   -0.105560   -1.014010
      5         17           0        3.303340   -0.000750   -0.000420
      6         35           0       -1.730880   -0.000920   -0.001010
 ---------------------------------------------------------------------
                    Distance matrix (angstroms):
                    1          2          3          4          5
     1  C    0.000000
     2  H    1.082365   0.000000
     3  H    1.082501   1.780343   0.000000
     4  H    1.082348   1.779789   1.780094   0.000000
     5  Cl   1.831595   2.402478   2.401520   2.402639   0.000000
     6  Br   3.202666   3.039823   3.051426   3.034369   5.034220
                    6
     6  Br   0.000000
 Symmetry turned off by external request.
 Stoichiometry    CH3BrCl(1-)
 Framework group  C1[X(CH3BrCl)]
 Deg. of freedom    12
 Full point group                 C1      NOp   1
 Rotational constants (GHZ):         158.1931384           0.7781263           0.7781239
 Standard basis: 6-311G(d,p) (5D, 7F)
   106 basis functions,   195 primitive gaussians,   111 cartesian basis functions
    31 alpha electrons       31 beta electrons
       nuclear repulsion energy       165.9046946969 Hartrees.
 NAtoms=    6 NActive=    6 NUniq=    6 SFac= 1.00D+00 NAtFMM=   60 NAOKFM=F Big=F
 Integral buffers will be    131072 words long.
 Raffenetti 2 integral format.
 Two-electron integral symmetry is turned off.
 One-electron integrals computed using PRISM.
 NBasis=   106 RedAO= T EigKep=  1.12D-02  NBF=   106
 NBsUse=   106 1.00D-06 EigRej= -1.00D+00 NBFU=   106
 ExpMin= 1.03D-01 ExpMax= 4.40D+05 ExpMxC= 1.51D+04 IAcc=3 IRadAn=         5 AccDes= 0.00D+00
 Harris functional with IExCor= 1009 and IRadAn=       5 diagonalized for initial guess.
 HarFok:  IExCor= 1009 AccDes= 0.00D+00 IRadAn=         5 IDoV= 1 UseB2=F ITyADJ=14
 ICtDFT=  3500011 ScaDFX=  1.000000  1.000000  1.000000  1.000000
 FoFCou: FMM=F IPFlag=           0 FMFlag=      100000 FMFlg1=           0
         NFxFlg=           0 DoJE=T BraDBF=F KetDBF=T FulRan=T
         wScrn=  0.000000 ICntrl=       500 IOpCl=  0 I1Cent=   200000004 NGrid=           0
         NMat0=    1 NMatS0=      1 NMatT0=    0 NMatD0=    1 NMtDS0=    0 NMtDT0=    0
 Symmetry not used in FoFCou.
 Keep R1 ints in memory in canonical form, NReq=20756204.
 Requested convergence on RMS density matrix=1.00D-08 within 128 cycles.
 Requested convergence on MAX density matrix=1.00D-06.
 Requested convergence on             energy=1.00D-06.
 No special actions if energy rises.
 Integral accuracy reduced to 1.0D-05 until final iterations.
 Initial convergence to 1.0D-05 achieved.  Increase integral accuracy.
 SCF Done:  E(RM062X) =  -3074.35867652     A.U. after   13 cycles
            NFock= 13  Conv=0.44D-08     -V/T= 2.0014

 **********************************************************************

            Population analysis using the SCF density.

 **********************************************************************

 Alpha  occ. eigenvalues -- -485.03808-102.53476 -63.03016 -56.85605 -56.85598
 Alpha  occ. eigenvalues --  -56.85598 -10.45004  -9.67676  -8.71601  -7.40134
 Alpha  occ. eigenvalues --   -7.39557  -7.39557  -6.53755  -6.53722  -6.53722
 Alpha  occ. eigenvalues --   -2.56943  -2.56932  -2.56932  -2.56903  -2.56903
 Alpha  occ. eigenvalues --   -0.81304  -0.62876  -0.55095  -0.37400  -0.37386
 Alpha  occ. eigenvalues --   -0.33362  -0.23731  -0.23729  -0.09059  -0.08975
 Alpha  occ. eigenvalues --   -0.08974
 Alpha virt. eigenvalues --    0.19728   0.23376   0.28097   0.28138   0.42558
 Alpha virt. eigenvalues --    0.45948   0.45957   0.46641   0.46647   0.54474
 Alpha virt. eigenvalues --    0.56623   0.56645   0.57985   0.71050   0.75023
 Alpha virt. eigenvalues --    0.76069   0.76096   0.85921   0.95257   0.95261
 Alpha virt. eigenvalues --    0.96133   0.96173   0.99486   1.01046   1.01051
 Alpha virt. eigenvalues --    1.07749   1.07751   1.10223   1.24541   1.31874
 Alpha virt. eigenvalues --    1.31883   1.62765   1.65495   1.65511   1.86345
 Alpha virt. eigenvalues --    1.86364   1.86858   2.08887   2.17892   2.17898
 Alpha virt. eigenvalues --    2.24427   2.25810   2.25813   2.38719   2.38724
 Alpha virt. eigenvalues --    2.50623   2.53377   2.58858   2.58881   2.68779
 Alpha virt. eigenvalues --    2.68827   3.04905   3.30996   3.90463   3.90485
 Alpha virt. eigenvalues --    4.56812   4.56813   4.57445   4.57460   4.65618
 Alpha virt. eigenvalues --    6.78054   7.82065   7.82076   7.86087   9.85142
 Alpha virt. eigenvalues --   24.07338  25.68832  25.68838  26.21877  48.36877
 Alpha virt. eigenvalues --  215.90335 290.98574 290.98587 291.024831020.85019
          Condensed to atoms (all electrons):
               1          2          3          4          5          6
     1  C    5.059557   0.401060   0.401001   0.401090   0.149958  -0.018994
     2  H    0.401060   0.501872  -0.020624  -0.020554  -0.056318   0.005495
     3  H    0.401001  -0.020624   0.502956  -0.020606  -0.056432   0.005426
     4  H    0.401090  -0.020554  -0.020606   0.501418  -0.056312   0.005521
     5  Cl   0.149958  -0.056318  -0.056432  -0.056312  17.255437   0.005361
     6  Br  -0.018994   0.005495   0.005426   0.005521   0.005361  35.928618
 Mulliken charges:
               1
     1  C   -0.393672
     2  H    0.189069
     3  H    0.188279
     4  H    0.189443
     5  Cl  -0.241693
     6  Br  -0.931428
 Sum of Mulliken charges =  -1.00000
 Mulliken charges with hydrogens summed into heavy atoms:
               1
     1  C    0.173120
     5  Cl  -0.241693
     6  Br  -0.931428
 Electronic spatial extent (au):  <R**2>=           1226.8694
 Charge=             -1.0000 electrons
 Dipole moment (field-independent basis, Debye):
    X=              3.9969    Y=              0.0126    Z=              0.0120  Tot=              3.9969
 Quadrupole moment (field-independent basis, Debye-Ang):
   XX=            -72.9999   YY=            -43.1959   ZZ=            -43.1947
   XY=              0.0072   XZ=              0.0033   YZ=             -0.0007
 Traceless Quadrupole moment (field-independent basis, Debye-Ang):
   XX=            -19.8697   YY=              9.9343   ZZ=              9.9355
   XY=              0.0072   XZ=              0.0033   YZ=             -0.0007
 Octapole moment (field-independent basis, Debye-Ang**2):
  XXX=            -79.7768  YYY=              0.2592  ZZZ=             -0.8975  XYY=            -16.8966
  XXY=             -0.0046  XXZ=             -0.0098  XZZ=            -16.9102  YZZ=             -0.3079
  YYZ=              0.8466  XYZ=              0.0040
 Hexadecapole moment (field-independent basis, Debye-Ang**3):
 XXXX=          -1632.8303 YYYY=            -63.7194 ZZZZ=            -63.7439 XXXY=             -0.3492
 XXXZ=             -0.4078 YYYX=              0.1625 YYYZ=              0.0193 ZZZX=             -1.2714
 ZZZY=             -0.0157 XXYY=           -255.8230 XXZZ=           -255.8411 YYZZ=            -21.2336
 XXYZ=              0.0041 YYXZ=              0.9511 ZZXY=             -0.4190
 N-N= 1.659046946969D+02 E-N=-7.686578587289D+03  KE= 3.070198382632D+03
 Calling FoFJK, ICntrl=      2127 FMM=F ISym2X=0 I1Cent= 0 IOpClX= 0 NMat=1 NMatS=1 NMatT=0.
 -------------------------------------------------------------------
 Center     Atomic                   Forces (Hartrees/Bohr)
 Number     Number              X              Y              Z
 -------------------------------------------------------------------
      1        6           0.000512889    0.000087742    0.000017415
      2        1           0.000031510   -0.000059968    0.000057252
      3        1          -0.000008840    0.000018529    0.000000637
      4        1           0.000063263   -0.000013651   -0.000064158
      5       17           0.000447783   -0.000017145    0.000000588
      6       35          -0.001046605   -0.000015506   -0.000011734
 -------------------------------------------------------------------
 Cartesian Forces:  Max     0.001046605 RMS     0.000296668

 GradGradGradGradGradGradGradGradGradGradGradGradGradGradGradGradGradGrad
 Berny optimization.
 Search for a local minimum.
 Step number   1 out of a maximum of    2
 All quantities printed in internal units (Hartrees-Bohrs-Radians)
 Second derivative matrix not updated -- first step.
 The second derivative matrix:
                          X1        Y1        Z1        X2        Y2
           X1           0.54539
           Y1           0.00071   0.63978
           Z1           0.00055  -0.00005   0.63972
           X2          -0.10280  -0.07843   0.05779   0.08613
           Y2          -0.06797  -0.23865   0.11656   0.07242   0.23279
           Z2           0.05010   0.11663  -0.16686  -0.05339  -0.12794
           X3          -0.10144   0.08769   0.03847   0.00823  -0.01121
           Y3           0.07580  -0.28631  -0.09022   0.00846  -0.01206
           Z3           0.03326  -0.09024  -0.12034  -0.01265   0.01844
           X4          -0.10337  -0.01076  -0.09753   0.00847   0.00676
           Y4          -0.00933  -0.08364  -0.02629   0.01488   0.01315
           Z4          -0.08462  -0.02635  -0.32132  -0.00449  -0.00372
           X5          -0.23777   0.00079   0.00073  -0.00002   0.00001
           Y5           0.00078  -0.03117   0.00001  -0.01732   0.00477
           Z5           0.00072   0.00001  -0.03120   0.01274  -0.00333
           X6           0.00000   0.00000   0.00000   0.00000   0.00000
           Y6           0.00000   0.00000   0.00000   0.00000   0.00000
           Z6           0.00000   0.00000   0.00000   0.00000   0.00000
                          Z2        X3        Y3        Z3        X4
           Z2           0.15390
           X3          -0.01059   0.08481
           Y3          -0.01161  -0.08074   0.28494
           Z3           0.01791  -0.03542   0.09896   0.10287
           X4           0.01389   0.00830  -0.00356   0.01480   0.08669
           Y4           0.02613  -0.01548   0.00752  -0.02961   0.00993
           Z4          -0.00755  -0.00110   0.00038  -0.00175   0.09019
           X5          -0.00000   0.00011   0.00003   0.00001  -0.00008
           Y5          -0.00322   0.01974   0.00591   0.00245  -0.00237
           Z5           0.00261   0.00865   0.00249   0.00131  -0.02135
           X6           0.00000   0.00000   0.00000   0.00000   0.00000
           Y6           0.00000   0.00000   0.00000   0.00000   0.00000
           Z6           0.00000   0.00000   0.00000   0.00000   0.00000
                          Y4        Z4        X5        Y5        Z5
           Y4           0.06264
           Z4           0.02894   0.32351
           X5           0.00000   0.00003   0.23777
           Y5           0.00033   0.00076  -0.00084   0.02017
           Z5           0.00084   0.00712  -0.00076   0.00000   0.02017
           X6           0.00000   0.00000   0.00000   0.00000   0.00000
           Y6           0.00000   0.00000   0.00000   0.00000   0.00000
           Z6           0.00000   0.00000   0.00000   0.00000   0.00000
                          X6        Y6        Z6
           X6           1.00000
           Y6           0.00000   1.00000
           Z6           0.00000   0.00000   1.00000
 ITU=  0
     Eigenvalues ---    0.02621   0.02621   0.07036   0.07038   0.09116
     Eigenvalues ---    0.13336   0.13337   0.28728   0.47495   0.76626
     Eigenvalues ---    0.92543   0.92555
 Angle between quadratic step and forces=  31.10 degrees.
 Linear search not attempted -- first point.
 B after Tr=    -0.000396    0.000068    0.000134
         Rot=    1.000000    0.000000   -0.000015    0.000015 Ang=   0.00 deg.
 Variable       Old X    -DE/DX   Delta X   Delta X   Delta X     New X
                                 (Linear)    (Quad)   (Total)
    X1        2.78124   0.00051   0.00000   0.00131   0.00091   2.78216
    Y1        0.01187   0.00009   0.00000   0.00021   0.00019   0.01206
    Z1        0.01136   0.00002   0.00000   0.00000   0.00005   0.01141
    X2        2.13669   0.00003   0.00000   0.00064   0.00024   2.13693
    Y2       -1.54999  -0.00006   0.00000  -0.00001  -0.00001  -1.55000
    Z2        1.16405   0.00006   0.00000  -0.00015  -0.00008   1.16397
    X3        2.15075  -0.00001   0.00000  -0.00041  -0.00072   2.15003
    Y3        1.79386   0.00002   0.00000  -0.00014  -0.00013   1.79373
    Z3        0.79340   0.00000   0.00000  -0.00021  -0.00015   0.79326
    X4        2.13065   0.00006   0.00000   0.00122   0.00076   2.13141
    Y4       -0.19948  -0.00001   0.00000  -0.00000  -0.00000  -0.19948
    Z4       -1.91620  -0.00006   0.00000  -0.00017  -0.00010  -1.91630
    X5        6.24241   0.00045   0.00000   0.00130   0.00090   6.24331
    Y5       -0.00142  -0.00002   0.00000  -0.00011  -0.00023  -0.00165
    Z5       -0.00079   0.00000   0.00000   0.00002  -0.00003  -0.00083
    X6       -3.27089  -0.00105   0.00000  -0.00169  -0.00209  -3.27298
    Y6       -0.00174  -0.00002   0.00000   0.00001   0.00018  -0.00156
    Z6       -0.00191  -0.00001   0.00000   0.00007   0.00031  -0.00160
         Item               Value     Threshold  Converged?
 Maximum Force            0.001047     0.000450     NO 
 RMS     Force            0.000297     0.000300     YES
 Maximum Displacement     0.002090     0.001800     NO 
 RMS     Displacement     0.000643     0.001200     YES
 Predicted change in Energy=-7.532250D-07
 GradGradGradGradGradGradGradGradGradGradGradGradGradGradGradGradGradGrad

 1\1\GINC-FS\Force\RM062X\6-311G(d,p)\C1H3Br1Cl1(1-)\XINYAN\22-Jan-2019
 \0\\# M062X/6-311G** force nosymm int=ultrafine\\Title\\-1,1\C,1.47177
 ,0.00628,0.00601\H,1.13069,-0.82022,0.61599\H,1.13813,0.94927,0.41985\
 H,1.12749,-0.10556,-1.01401\Cl,3.30334,-0.00075,-0.00042\Br,-1.73088,-
 0.00092,-0.00101\\Version=ES64L-G16RevA.03\HF=-3074.3586765\RMSD=4.351
 e-09\RMSF=2.967e-04\Dipole=1.8142291,0.0054765,0.0052152\Quadrupole=-1
 4.7726535,7.3858833,7.3867702,0.0053818,0.0024184,-0.0005248\PG=C01 [X
 (C1H3Br1Cl1)]\\@


 YOU WILL NEVER "FIND" TIME FOR ANYTHING.
 IF YOU WANT TIME, YOU MUST MAKE IT.

                        -- CHARLES BIXTON
 Job cpu time:       0 days  0 hours  0 minutes 34.4 seconds.
 Elapsed time:       0 days  0 hours  0 minutes  7.4 seconds.
 File lengths (MBytes):  RWF=     10 Int=      0 D2E=      0 Chk=      2 Scr=      1
 Normal termination of Gaussian 16 at Tue Jan 22 16:57:49 2019.
