 Entering Gaussian System, Link 0=g16
 Input=CH3BrCl-41.gjf
 Output=CH3BrCl-41.log
 Initial command:
 /home/xinyan/g16/l1.exe "/scratch/tmp/Gau-14614.inp" -scrdir="/scratch/tmp/"
 Entering Link 1 = /home/xinyan/g16/l1.exe PID=     14615.
  
 Copyright (c) 1988,1990,1992,1993,1995,1998,2003,2009,2016,
            Gaussian, Inc.  All Rights Reserved.
  
 This is part of the Gaussian(R) 16 program.  It is based on
 the Gaussian(R) 09 system (copyright 2009, Gaussian, Inc.),
 the Gaussian(R) 03 system (copyright 2003, Gaussian, Inc.),
 the Gaussian(R) 98 system (copyright 1998, Gaussian, Inc.),
 the Gaussian(R) 94 system (copyright 1995, Gaussian, Inc.),
 the Gaussian 92(TM) system (copyright 1992, Gaussian, Inc.),
 the Gaussian 90(TM) system (copyright 1990, Gaussian, Inc.),
 the Gaussian 88(TM) system (copyright 1988, Gaussian, Inc.),
 the Gaussian 86(TM) system (copyright 1986, Carnegie Mellon
 University), and the Gaussian 82(TM) system (copyright 1983,
 Carnegie Mellon University). Gaussian is a federally registered
 trademark of Gaussian, Inc.
  
 This software contains proprietary and confidential information,
 including trade secrets, belonging to Gaussian, Inc.
  
 This software is provided under written license and may be
 used, copied, transmitted, or stored only in accord with that
 written license.
  
 The following legend is applicable only to US Government
 contracts under FAR:
  
                    RESTRICTED RIGHTS LEGEND
  
 Use, reproduction and disclosure by the US Government is
 subject to restrictions as set forth in subparagraphs (a)
 and (c) of the Commercial Computer Software - Restricted
 Rights clause in FAR 52.227-19.
  
 Gaussian, Inc.
 340 Quinnipiac St., Bldg. 40, Wallingford CT 06492
  
  
 ---------------------------------------------------------------
 Warning -- This program may not be used in any manner that
 competes with the business of Gaussian, Inc. or will provide
 assistance to any competitor of Gaussian, Inc.  The licensee
 of this program is prohibited from giving any competitor of
 Gaussian, Inc. access to this program.  By using this program,
 the user acknowledges that Gaussian, Inc. is engaged in the
 business of creating and licensing software in the field of
 computational chemistry and represents and warrants to the
 licensee that it is not a competitor of Gaussian, Inc. and that
 it will not use this program in any manner prohibited above.
 ---------------------------------------------------------------
  

 Cite this work as:
 Gaussian 16, Revision A.03,
 M. J. Frisch, G. W. Trucks, H. B. Schlegel, G. E. Scuseria, 
 M. A. Robb, J. R. Cheeseman, G. Scalmani, V. Barone, 
 G. A. Petersson, H. Nakatsuji, X. Li, M. Caricato, A. V. Marenich, 
 J. Bloino, B. G. Janesko, R. Gomperts, B. Mennucci, H. P. Hratchian, 
 J. V. Ortiz, A. F. Izmaylov, J. L. Sonnenberg, D. Williams-Young, 
 F. Ding, F. Lipparini, F. Egidi, J. Goings, B. Peng, A. Petrone, 
 T. Henderson, D. Ranasinghe, V. G. Zakrzewski, J. Gao, N. Rega, 
 G. Zheng, W. Liang, M. Hada, M. Ehara, K. Toyota, R. Fukuda, 
 J. Hasegawa, M. Ishida, T. Nakajima, Y. Honda, O. Kitao, H. Nakai, 
 T. Vreven, K. Throssell, J. A. Montgomery, Jr., J. E. Peralta, 
 F. Ogliaro, M. J. Bearpark, J. J. Heyd, E. N. Brothers, K. N. Kudin, 
 V. N. Staroverov, T. A. Keith, R. Kobayashi, J. Normand, 
 K. Raghavachari, A. P. Rendell, J. C. Burant, S. S. Iyengar, 
 J. Tomasi, M. Cossi, J. M. Millam, M. Klene, C. Adamo, R. Cammi, 
 J. W. Ochterski, R. L. Martin, K. Morokuma, O. Farkas, 
 J. B. Foresman, and D. J. Fox, Gaussian, Inc., Wallingford CT, 2016.
 
 ******************************************
 Gaussian 16:  ES64L-G16RevA.03 25-Dec-2016
                22-Jan-2019 
 ******************************************
 %nproc=5
 Will use up to    5 processors via shared memory.
 -------------------------------------------
 # M062X/6-311G** force nosymm int=ultrafine
 -------------------------------------------
 1/10=7,30=1,38=1/1,3;
 2/12=2,15=1,17=6,18=5,40=1/2;
 3/5=4,6=6,7=101,11=2,25=1,30=1,71=1,74=-55,75=-5/1,2,3;
 4//1;
 5/5=2,38=5/2;
 6/7=2,8=2,9=2,10=2,28=1/1;
 7/29=1,30=1/1,2,3,16;
 1/10=7,30=1/3;
 99//99;
 -----
 Title
 -----
 Symbolic Z-matrix:
 Charge = -1 Multiplicity = 1
 C                     1.18572   0.00013   0.00113 
 H                     0.91804  -0.84896   0.60927 
 H                     0.91804   0.95119   0.43273 
 H                     0.91698  -0.10162  -1.038 
 Cl                    3.14324  -0.00004  -0.00019 
 Br                   -1.60823  -0.00001  -0.00014 
 

 GradGradGradGradGradGradGradGradGradGradGradGradGradGradGradGradGradGrad
 Berny optimization.
 Initialization pass.
 Trust Radius=3.00D-01 FncErr=1.00D-07 GrdErr=1.00D-07 EigMax=2.50D+02 EigMin=1.00D-04
 Number of steps in this run=      2 maximum allowed number of steps=      2.
 GradGradGradGradGradGradGradGradGradGradGradGradGradGradGradGradGradGrad

                          Input orientation:                          
 ---------------------------------------------------------------------
 Center     Atomic      Atomic             Coordinates (Angstroms)
 Number     Number       Type             X           Y           Z
 ---------------------------------------------------------------------
      1          6           0        1.185720    0.000130    0.001130
      2          1           0        0.918040   -0.848960    0.609270
      3          1           0        0.918040    0.951190    0.432730
      4          1           0        0.916980   -0.101620   -1.038000
      5         17           0        3.143240   -0.000040   -0.000190
      6         35           0       -1.608230   -0.000010   -0.000140
 ---------------------------------------------------------------------
                    Distance matrix (angstroms):
                    1          2          3          4          5
     1  C    0.000000
     2  H    1.078165   0.000000
     3  H    1.078168   1.808786   0.000000
     4  H    1.078131   1.808872   1.808717   0.000000
     5  Cl   1.957520   2.458378   2.458409   2.458374   0.000000
     6  Br   2.793950   2.733887   2.733898   2.732062   4.751470
                    6
     6  Br   0.000000
 Symmetry turned off by external request.
 This structure is nearly, but not quite of a higher symmetry.
 Consider Symm=Loose if the higher symmetry is desired.
 Stoichiometry    CH3BrCl(1-)
 Framework group  C1[X(CH3BrCl)]
 Deg. of freedom    12
 Full point group                 C1      NOp   1
 Rotational constants (GHZ):         153.2682070           0.8855867           0.8855862
 Standard basis: 6-311G(d,p) (5D, 7F)
   106 basis functions,   195 primitive gaussians,   111 cartesian basis functions
    31 alpha electrons       31 beta electrons
       nuclear repulsion energy       174.6326931115 Hartrees.
 NAtoms=    6 NActive=    6 NUniq=    6 SFac= 1.00D+00 NAtFMM=   60 NAOKFM=F Big=F
 Integral buffers will be    131072 words long.
 Raffenetti 2 integral format.
 Two-electron integral symmetry is turned off.
 One-electron integrals computed using PRISM.
 NBasis=   106 RedAO= T EigKep=  1.11D-02  NBF=   106
 NBsUse=   106 1.00D-06 EigRej= -1.00D+00 NBFU=   106
 ExpMin= 1.03D-01 ExpMax= 4.40D+05 ExpMxC= 1.51D+04 IAcc=3 IRadAn=         5 AccDes= 0.00D+00
 Harris functional with IExCor= 1009 and IRadAn=       5 diagonalized for initial guess.
 HarFok:  IExCor= 1009 AccDes= 0.00D+00 IRadAn=         5 IDoV= 1 UseB2=F ITyADJ=14
 ICtDFT=  3500011 ScaDFX=  1.000000  1.000000  1.000000  1.000000
 FoFCou: FMM=F IPFlag=           0 FMFlag=      100000 FMFlg1=           0
         NFxFlg=           0 DoJE=T BraDBF=F KetDBF=T FulRan=T
         wScrn=  0.000000 ICntrl=       500 IOpCl=  0 I1Cent=   200000004 NGrid=           0
         NMat0=    1 NMatS0=      1 NMatT0=    0 NMatD0=    1 NMtDS0=    0 NMtDT0=    0
 Symmetry not used in FoFCou.
 Keep R1 ints in memory in canonical form, NReq=20756204.
 Requested convergence on RMS density matrix=1.00D-08 within 128 cycles.
 Requested convergence on MAX density matrix=1.00D-06.
 Requested convergence on             energy=1.00D-06.
 No special actions if energy rises.
 Integral accuracy reduced to 1.0D-05 until final iterations.
 Initial convergence to 1.0D-05 achieved.  Increase integral accuracy.
 SCF Done:  E(RM062X) =  -3074.35126357     A.U. after   14 cycles
            NFock= 14  Conv=0.33D-08     -V/T= 2.0013

 **********************************************************************

            Population analysis using the SCF density.

 **********************************************************************

 Alpha  occ. eigenvalues -- -485.04991-102.50852 -63.04231 -56.86819 -56.86805
 Alpha  occ. eigenvalues --  -56.86805 -10.44829  -9.64984  -8.72842  -7.37398
 Alpha  occ. eigenvalues --   -7.36888  -7.36888  -6.55026  -6.54948  -6.54948
 Alpha  occ. eigenvalues --   -2.58210  -2.58185  -2.58184  -2.58121  -2.58121
 Alpha  occ. eigenvalues --   -0.77293  -0.62890  -0.56181  -0.36534  -0.36531
 Alpha  occ. eigenvalues --   -0.29675  -0.22105  -0.22104  -0.10193  -0.10192
 Alpha  occ. eigenvalues --   -0.09979
 Alpha virt. eigenvalues --    0.18762   0.23303   0.28906   0.28912   0.43505
 Alpha virt. eigenvalues --    0.46756   0.46759   0.48125   0.48126   0.51900
 Alpha virt. eigenvalues --    0.55896   0.55901   0.64881   0.70943   0.73404
 Alpha virt. eigenvalues --    0.76949   0.76955   0.89778   0.94035   0.94036
 Alpha virt. eigenvalues --    0.94508   0.94509   0.97767   1.05699   1.05702
 Alpha virt. eigenvalues --    1.10352   1.10352   1.20837   1.24538   1.31345
 Alpha virt. eigenvalues --    1.31349   1.61567   1.65491   1.65497   1.83445
 Alpha virt. eigenvalues --    1.88352   1.88353   2.03381   2.15895   2.15900
 Alpha virt. eigenvalues --    2.25997   2.26001   2.28585   2.37279   2.37282
 Alpha virt. eigenvalues --    2.51127   2.57836   2.60973   2.60976   2.72512
 Alpha virt. eigenvalues --    2.72516   3.11505   3.21325   3.89991   3.90003
 Alpha virt. eigenvalues --    4.55669   4.55671   4.56687   4.56690   4.71829
 Alpha virt. eigenvalues --    6.79076   7.81197   7.81200   7.87513   9.84424
 Alpha virt. eigenvalues --   24.08753  25.69713  25.69715  26.21003  48.37628
 Alpha virt. eigenvalues --  215.89472 290.97712 290.97714 291.043071020.86357
          Condensed to atoms (all electrons):
               1          2          3          4          5          6
     1  C    5.037103   0.410236   0.410227   0.410299   0.123310  -0.030136
     2  H    0.410236   0.500652  -0.018464  -0.018435  -0.055695  -0.011645
     3  H    0.410227  -0.018464   0.500675  -0.018451  -0.055687  -0.011641
     4  H    0.410299  -0.018435  -0.018451   0.500530  -0.055722  -0.011709
     5  Cl   0.123310  -0.055695  -0.055687  -0.055722  17.374784   0.014002
     6  Br  -0.030136  -0.011645  -0.011641  -0.011709   0.014002  35.925274
 Mulliken charges:
               1
     1  C   -0.361039
     2  H    0.193350
     3  H    0.193340
     4  H    0.193487
     5  Cl  -0.344992
     6  Br  -0.874147
 Sum of Mulliken charges =  -1.00000
 Mulliken charges with hydrogens summed into heavy atoms:
               1
     1  C    0.219138
     5  Cl  -0.344992
     6  Br  -0.874147
 Electronic spatial extent (au):  <R**2>=           1093.3861
 Charge=             -1.0000 electrons
 Dipole moment (field-independent basis, Debye):
    X=              1.9944    Y=              0.0005    Z=              0.0025  Tot=              1.9944
 Quadrupole moment (field-independent basis, Debye-Ang):
   XX=            -74.3423   YY=            -43.1920   ZZ=            -43.1910
   XY=              0.0001   XZ=              0.0017   YZ=             -0.0004
 Traceless Quadrupole moment (field-independent basis, Debye-Ang):
   XX=            -20.7672   YY=             10.3831   ZZ=             10.3841
   XY=              0.0001   XZ=              0.0017   YZ=             -0.0004
 Octapole moment (field-independent basis, Debye-Ang**2):
  XXX=            -92.7094  YYY=              0.2850  ZZZ=             -0.9500  XYY=            -16.9378
  XXY=              0.0006  XXZ=             -0.0008  XZZ=            -16.9399  YZZ=             -0.2853
  YYZ=              0.9433  XYZ=             -0.0003
 Hexadecapole moment (field-independent basis, Debye-Ang**3):
 XXXX=          -1491.3399 YYYY=            -63.8558 ZZZZ=            -63.8572 XXXY=             -0.0024
 XXXZ=             -0.0377 YYYX=              0.2776 YYYZ=              0.0006 ZZZX=             -0.9344
 ZZZY=             -0.0018 XXYY=           -231.1069 XXZZ=           -231.1075 YYZZ=            -21.2824
 XXYZ=             -0.0012 YYXZ=              0.9123 ZZXY=             -0.2769
 N-N= 1.746326931115D+02 E-N=-7.704122250234D+03  KE= 3.070206743042D+03
 Calling FoFJK, ICntrl=      2127 FMM=F ISym2X=0 I1Cent= 0 IOpClX= 0 NMat=1 NMatS=1 NMatT=0.
 -------------------------------------------------------------------
 Center     Atomic                   Forces (Hartrees/Bohr)
 Number     Number              X              Y              Z
 -------------------------------------------------------------------
      1        6           0.024901546    0.000003777   -0.000004098
      2        1           0.000797797    0.000226730   -0.000163959
      3        1           0.000801374   -0.000260262   -0.000113779
      4        1           0.000792484    0.000032348    0.000281712
      5       17          -0.011655055   -0.000003853    0.000008820
      6       35          -0.015638146    0.000001259   -0.000008696
 -------------------------------------------------------------------
 Cartesian Forces:  Max     0.024901546 RMS     0.007463337

 GradGradGradGradGradGradGradGradGradGradGradGradGradGradGradGradGradGrad
 Berny optimization.
 Search for a local minimum.
 Step number   1 out of a maximum of    2
 All quantities printed in internal units (Hartrees-Bohrs-Radians)
 Second derivative matrix not updated -- first step.
 The second derivative matrix:
                          X1        Y1        Z1        X2        Y2
           X1           0.42644
           Y1           0.00001   0.67649
           Z1           0.00018  -0.00004   0.67657
           X2          -0.08609  -0.06440   0.04610   0.07148
           Y2          -0.05754  -0.25716   0.11827   0.06058   0.24888
           Z2           0.04119   0.11827  -0.17675  -0.04337  -0.13151
           X3          -0.08608   0.07212   0.03271   0.00729  -0.00938
           Y3           0.06444  -0.29920  -0.09402   0.00728  -0.01121
           Z3           0.02923  -0.09402  -0.13470  -0.01152   0.01888
           X4          -0.08625  -0.00775  -0.07909   0.00732   0.00634
           Y4          -0.00693  -0.09441  -0.02421   0.01329   0.01594
           Z4          -0.07069  -0.02422  -0.33939  -0.00319  -0.00320
           X5          -0.16802   0.00001   0.00010   0.00001  -0.00000
           Y5           0.00001  -0.02572   0.00000  -0.01674   0.00354
           Z5           0.00010   0.00000  -0.02573   0.01199  -0.00244
           X6           0.00000   0.00000   0.00000   0.00000   0.00000
           Y6           0.00000   0.00000   0.00000   0.00000   0.00000
           Z6           0.00000   0.00000   0.00000   0.00000   0.00000
                          Z2        X3        Y3        Z3        X4
           Z2           0.15947
           X3          -0.00989   0.07147
           Y3          -0.01245  -0.06785   0.29563
           Z3           0.02129  -0.03078   0.10454   0.11272
           X4           0.01207   0.00731  -0.00387   0.01307   0.07163
           Y4           0.02811  -0.01365   0.01038  -0.03133   0.00729
           Z4          -0.00587  -0.00055  -0.00001  -0.00031   0.07444
           X5           0.00000   0.00001   0.00000   0.00000  -0.00001
           Y5          -0.00243   0.01875   0.00440   0.00193  -0.00201
           Z5           0.00187   0.00851   0.00194   0.00100  -0.02049
           X6           0.00000   0.00000   0.00000   0.00000   0.00000
           Y6           0.00000   0.00000   0.00000   0.00000   0.00000
           Z6           0.00000   0.00000   0.00000   0.00000   0.00000
                          Y4        Z4        X5        Y5        Z5
           Y4           0.06792
           Z4           0.02693   0.34032
           X5           0.00000   0.00000   0.16802
           Y5           0.00018   0.00050  -0.00001   0.01760
           Z5           0.00050   0.00525  -0.00010  -0.00000   0.01761
           X6           0.00000   0.00000   0.00000   0.00000   0.00000
           Y6           0.00000   0.00000   0.00000   0.00000   0.00000
           Z6           0.00000   0.00000   0.00000   0.00000   0.00000
                          X6        Y6        Z6
           X6           1.00000
           Y6           0.00000   1.00000
           Z6           0.00000   0.00000   1.00000
 ITU=  0
     Eigenvalues ---    0.03217   0.03217   0.06535   0.06535   0.07714
     Eigenvalues ---    0.14389   0.14390   0.28795   0.45657   0.61256
     Eigenvalues ---    0.96768   0.96782
 Angle between quadratic step and forces=  47.47 degrees.
 Linear search not attempted -- first point.
 B after Tr=    -0.026872   -0.000026   -0.000056
         Rot=    1.000000    0.000000    0.000005   -0.000002 Ang=   0.00 deg.
 Variable       Old X    -DE/DX   Delta X   Delta X   Delta X     New X
                                 (Linear)    (Quad)   (Total)
    X1        2.24069   0.02490   0.00000   0.06670   0.03983   2.28051
    Y1        0.00025   0.00000   0.00000   0.00003   0.00001   0.00026
    Z1        0.00214  -0.00000   0.00000   0.00005   0.00002   0.00216
    X2        1.73484   0.00080   0.00000   0.05423   0.02735   1.76219
    Y2       -1.60430   0.00023   0.00000   0.00280   0.00278  -1.60153
    Z2        1.15135  -0.00016   0.00000  -0.00189  -0.00193   1.14942
    X3        1.73484   0.00080   0.00000   0.05429   0.02741   1.76225
    Y3        1.79749  -0.00026   0.00000  -0.00305  -0.00307   1.79442
    Z3        0.81774  -0.00011   0.00000  -0.00133  -0.00137   0.81637
    X4        1.73284   0.00079   0.00000   0.05407   0.02722   1.76006
    Y4       -0.19203   0.00003   0.00000   0.00038   0.00036  -0.19167
    Z4       -1.96154   0.00028   0.00000   0.00347   0.00343  -1.95811
    X5        5.93986  -0.01166   0.00000  -0.04275  -0.06963   5.87024
    Y5       -0.00008  -0.00000   0.00000  -0.00002  -0.00003  -0.00010
    Z5       -0.00036   0.00001   0.00000  -0.00002  -0.00001  -0.00037
    X6       -3.03911  -0.01564   0.00000  -0.02530  -0.05218  -3.09129
    Y6       -0.00002   0.00000   0.00000  -0.00002  -0.00006  -0.00008
    Z6       -0.00026  -0.00001   0.00000  -0.00005  -0.00014  -0.00040
         Item               Value     Threshold  Converged?
 Maximum Force            0.024902     0.000450     NO 
 RMS     Force            0.007463     0.000300     NO 
 Maximum Displacement     0.069626     0.001800     NO 
 RMS     Displacement     0.025200     0.001200     NO 
 Predicted change in Energy=-3.026938D-04
 GradGradGradGradGradGradGradGradGradGradGradGradGradGradGradGradGradGrad

 1\1\GINC-FS\Force\RM062X\6-311G(d,p)\C1H3Br1Cl1(1-)\XINYAN\22-Jan-2019
 \0\\# M062X/6-311G** force nosymm int=ultrafine\\Title\\-1,1\C,1.18572
 ,0.00013,0.00113\H,0.91804,-0.84896,0.60927\H,0.91804,0.95119,0.43273\
 H,0.91698,-0.10162,-1.038\Cl,3.14324,-0.00004,-0.00019\Br,-1.60823,-0.
 00001,-0.00014\\Version=ES64L-G16RevA.03\HF=-3074.3512636\RMSD=3.304e-
 09\RMSF=7.463e-03\Dipole=1.0019428,0.000203,0.0010749\Quadrupole=-15.4
 398683,7.7195482,7.7203201,0.0000992,0.0012454,-0.0003037\PG=C01 [X(C1
 H3Br1Cl1)]\\@


 TRUST EVERYONE, BUT CUT THE CARDS.
 Job cpu time:       0 days  0 hours  0 minutes 42.4 seconds.
 Elapsed time:       0 days  0 hours  0 minutes  9.1 seconds.
 File lengths (MBytes):  RWF=     10 Int=      0 D2E=      0 Chk=      2 Scr=      1
 Normal termination of Gaussian 16 at Tue Jan 22 16:55:04 2019.
