 Entering Gaussian System, Link 0=g16
 Input=CH3BrCl-29.gjf
 Output=CH3BrCl-29.log
 Initial command:
 /home/xinyan/g16/l1.exe "/scratch/tmp/Gau-13706.inp" -scrdir="/scratch/tmp/"
 Entering Link 1 = /home/xinyan/g16/l1.exe PID=     13707.
  
 Copyright (c) 1988,1990,1992,1993,1995,1998,2003,2009,2016,
            Gaussian, Inc.  All Rights Reserved.
  
 This is part of the Gaussian(R) 16 program.  It is based on
 the Gaussian(R) 09 system (copyright 2009, Gaussian, Inc.),
 the Gaussian(R) 03 system (copyright 2003, Gaussian, Inc.),
 the Gaussian(R) 98 system (copyright 1998, Gaussian, Inc.),
 the Gaussian(R) 94 system (copyright 1995, Gaussian, Inc.),
 the Gaussian 92(TM) system (copyright 1992, Gaussian, Inc.),
 the Gaussian 90(TM) system (copyright 1990, Gaussian, Inc.),
 the Gaussian 88(TM) system (copyright 1988, Gaussian, Inc.),
 the Gaussian 86(TM) system (copyright 1986, Carnegie Mellon
 University), and the Gaussian 82(TM) system (copyright 1983,
 Carnegie Mellon University). Gaussian is a federally registered
 trademark of Gaussian, Inc.
  
 This software contains proprietary and confidential information,
 including trade secrets, belonging to Gaussian, Inc.
  
 This software is provided under written license and may be
 used, copied, transmitted, or stored only in accord with that
 written license.
  
 The following legend is applicable only to US Government
 contracts under FAR:
  
                    RESTRICTED RIGHTS LEGEND
  
 Use, reproduction and disclosure by the US Government is
 subject to restrictions as set forth in subparagraphs (a)
 and (c) of the Commercial Computer Software - Restricted
 Rights clause in FAR 52.227-19.
  
 Gaussian, Inc.
 340 Quinnipiac St., Bldg. 40, Wallingford CT 06492
  
  
 ---------------------------------------------------------------
 Warning -- This program may not be used in any manner that
 competes with the business of Gaussian, Inc. or will provide
 assistance to any competitor of Gaussian, Inc.  The licensee
 of this program is prohibited from giving any competitor of
 Gaussian, Inc. access to this program.  By using this program,
 the user acknowledges that Gaussian, Inc. is engaged in the
 business of creating and licensing software in the field of
 computational chemistry and represents and warrants to the
 licensee that it is not a competitor of Gaussian, Inc. and that
 it will not use this program in any manner prohibited above.
 ---------------------------------------------------------------
  

 Cite this work as:
 Gaussian 16, Revision A.03,
 M. J. Frisch, G. W. Trucks, H. B. Schlegel, G. E. Scuseria, 
 M. A. Robb, J. R. Cheeseman, G. Scalmani, V. Barone, 
 G. A. Petersson, H. Nakatsuji, X. Li, M. Caricato, A. V. Marenich, 
 J. Bloino, B. G. Janesko, R. Gomperts, B. Mennucci, H. P. Hratchian, 
 J. V. Ortiz, A. F. Izmaylov, J. L. Sonnenberg, D. Williams-Young, 
 F. Ding, F. Lipparini, F. Egidi, J. Goings, B. Peng, A. Petrone, 
 T. Henderson, D. Ranasinghe, V. G. Zakrzewski, J. Gao, N. Rega, 
 G. Zheng, W. Liang, M. Hada, M. Ehara, K. Toyota, R. Fukuda, 
 J. Hasegawa, M. Ishida, T. Nakajima, Y. Honda, O. Kitao, H. Nakai, 
 T. Vreven, K. Throssell, J. A. Montgomery, Jr., J. E. Peralta, 
 F. Ogliaro, M. J. Bearpark, J. J. Heyd, E. N. Brothers, K. N. Kudin, 
 V. N. Staroverov, T. A. Keith, R. Kobayashi, J. Normand, 
 K. Raghavachari, A. P. Rendell, J. C. Burant, S. S. Iyengar, 
 J. Tomasi, M. Cossi, J. M. Millam, M. Klene, C. Adamo, R. Cammi, 
 J. W. Ochterski, R. L. Martin, K. Morokuma, O. Farkas, 
 J. B. Foresman, and D. J. Fox, Gaussian, Inc., Wallingford CT, 2016.
 
 ******************************************
 Gaussian 16:  ES64L-G16RevA.03 25-Dec-2016
                22-Jan-2019 
 ******************************************
 %nproc=5
 Will use up to    5 processors via shared memory.
 -------------------------------------------
 # M062X/6-311G** force nosymm int=ultrafine
 -------------------------------------------
 1/10=7,30=1,38=1/1,3;
 2/12=2,15=1,17=6,18=5,40=1/2;
 3/5=4,6=6,7=101,11=2,25=1,30=1,71=1,74=-55,75=-5/1,2,3;
 4//1;
 5/5=2,38=5/2;
 6/7=2,8=2,9=2,10=2,28=1/1;
 7/29=1,30=1/1,2,3,16;
 1/10=7,30=1/3;
 99//99;
 -----
 Title
 -----
 Symbolic Z-matrix:
 Charge = -1 Multiplicity = 1
 C                     0.8773    0.00009   0.00139 
 H                     0.8682   -0.87299   0.62574 
 H                     0.8682    0.97734   0.44529 
 H                     0.86788  -0.10411  -1.06679 
 Cl                    3.19667  -0.00002  -0.00032 
 Br                   -1.58311  -0.00001  -0.00013 
 

 GradGradGradGradGradGradGradGradGradGradGradGradGradGradGradGradGradGrad
 Berny optimization.
 Initialization pass.
 Trust Radius=3.00D-01 FncErr=1.00D-07 GrdErr=1.00D-07 EigMax=2.50D+02 EigMin=1.00D-04
 Number of steps in this run=      2 maximum allowed number of steps=      2.
 GradGradGradGradGradGradGradGradGradGradGradGradGradGradGradGradGradGrad

                          Input orientation:                          
 ---------------------------------------------------------------------
 Center     Atomic      Atomic             Coordinates (Angstroms)
 Number     Number       Type             X           Y           Z
 ---------------------------------------------------------------------
      1          6           0        0.877300    0.000090    0.001390
      2          1           0        0.868200   -0.872990    0.625740
      3          1           0        0.868200    0.977340    0.445290
      4          1           0        0.867880   -0.104110   -1.066790
      5         17           0        3.196670   -0.000020   -0.000320
      6         35           0       -1.583110   -0.000010   -0.000130
 ---------------------------------------------------------------------
                    Distance matrix (angstroms):
                    1          2          3          4          5
     1  C    0.000000
     2  H    1.073389   0.000000
     3  H    1.073381   1.859108   0.000000
     4  H    1.073292   1.858987   1.859011   0.000000
     5  Cl   2.319371   2.564332   2.564288   2.563485   0.000000
     6  Br   2.460410   2.676327   2.676291   2.675061   4.779780
                    6
     6  Br   0.000000
 Symmetry turned off by external request.
 This structure is nearly, but not quite of a higher symmetry.
 Consider Symm=Loose if the higher symmetry is desired.
 Stoichiometry    CH3BrCl(1-)
 Framework group  C1[X(CH3BrCl)]
 Deg. of freedom    12
 Full point group                 C1      NOp   1
 Rotational constants (GHZ):         145.0950092           0.8891569           0.8891565
 Standard basis: 6-311G(d,p) (5D, 7F)
   106 basis functions,   195 primitive gaussians,   111 cartesian basis functions
    31 alpha electrons       31 beta electrons
       nuclear repulsion energy       175.3297129743 Hartrees.
 NAtoms=    6 NActive=    6 NUniq=    6 SFac= 1.00D+00 NAtFMM=   60 NAOKFM=F Big=F
 Integral buffers will be    131072 words long.
 Raffenetti 2 integral format.
 Two-electron integral symmetry is turned off.
 One-electron integrals computed using PRISM.
 NBasis=   106 RedAO= T EigKep=  1.10D-02  NBF=   106
 NBsUse=   106 1.00D-06 EigRej= -1.00D+00 NBFU=   106
 ExpMin= 1.03D-01 ExpMax= 4.40D+05 ExpMxC= 1.51D+04 IAcc=3 IRadAn=         5 AccDes= 0.00D+00
 Harris functional with IExCor= 1009 and IRadAn=       5 diagonalized for initial guess.
 HarFok:  IExCor= 1009 AccDes= 0.00D+00 IRadAn=         5 IDoV= 1 UseB2=F ITyADJ=14
 ICtDFT=  3500011 ScaDFX=  1.000000  1.000000  1.000000  1.000000
 FoFCou: FMM=F IPFlag=           0 FMFlag=      100000 FMFlg1=           0
         NFxFlg=           0 DoJE=T BraDBF=F KetDBF=T FulRan=T
         wScrn=  0.000000 ICntrl=       500 IOpCl=  0 I1Cent=   200000004 NGrid=           0
         NMat0=    1 NMatS0=      1 NMatT0=    0 NMatD0=    1 NMtDS0=    0 NMtDT0=    0
 Symmetry not used in FoFCou.
 Keep R1 ints in memory in canonical form, NReq=20756192.
 Requested convergence on RMS density matrix=1.00D-08 within 128 cycles.
 Requested convergence on MAX density matrix=1.00D-06.
 Requested convergence on             energy=1.00D-06.
 No special actions if energy rises.
 Integral accuracy reduced to 1.0D-05 until final iterations.
 Initial convergence to 1.0D-05 achieved.  Increase integral accuracy.
 SCF Done:  E(RM062X) =  -3074.33757021     A.U. after   14 cycles
            NFock= 14  Conv=0.40D-08     -V/T= 2.0014

 **********************************************************************

            Population analysis using the SCF density.

 **********************************************************************

 Alpha  occ. eigenvalues -- -485.10577-102.43913 -63.09802 -56.92447 -56.92344
 Alpha  occ. eigenvalues --  -56.92344 -10.46002  -9.58040  -8.78426  -7.30313
 Alpha  occ. eigenvalues --   -7.30026  -7.30026  -6.60817  -6.60411  -6.60411
 Alpha  occ. eigenvalues --   -2.63980  -2.63851  -2.63851  -2.63494  -2.63494
 Alpha  occ. eigenvalues --   -0.69942  -0.64704  -0.59480  -0.37039  -0.37038
 Alpha  occ. eigenvalues --   -0.23348  -0.17008  -0.17007  -0.14644  -0.14643
 Alpha  occ. eigenvalues --   -0.13203
 Alpha virt. eigenvalues --    0.15145   0.22489   0.28804   0.28810   0.46747
 Alpha virt. eigenvalues --    0.47116   0.47119   0.47795   0.50410   0.50411
 Alpha virt. eigenvalues --    0.53730   0.53734   0.65389   0.66837   0.76753
 Alpha virt. eigenvalues --    0.76758   0.78340   0.89270   0.89273   0.89605
 Alpha virt. eigenvalues --    0.90157   0.90162   0.97046   1.15520   1.15523
 Alpha virt. eigenvalues --    1.16592   1.16593   1.20472   1.29080   1.29089
 Alpha virt. eigenvalues --    1.34624   1.58306   1.62580   1.62587   1.66061
 Alpha virt. eigenvalues --    1.98616   2.00721   2.00732   2.08701   2.08714
 Alpha virt. eigenvalues --    2.17224   2.17233   2.27530   2.37980   2.37983
 Alpha virt. eigenvalues --    2.48598   2.59943   2.59949   2.66360   2.79548
 Alpha virt. eigenvalues --    2.79549   2.99712   3.14890   3.90366   3.90379
 Alpha virt. eigenvalues --    4.50432   4.50434   4.52740   4.52746   4.70734
 Alpha virt. eigenvalues --    6.74804   7.76407   7.76410   7.84323   9.86460
 Alpha virt. eigenvalues --   24.08540  25.73148  25.73151  26.05090  48.32868
 Alpha virt. eigenvalues --  215.91121 290.92212 290.92213 291.006211020.81809
          Condensed to atoms (all electrons):
               1          2          3          4          5          6
     1  C    4.983450   0.414472   0.414477   0.414596   0.069347   0.054695
     2  H    0.414472   0.495836  -0.016316  -0.016287  -0.045430  -0.037344
     3  H    0.414477  -0.016316   0.495835  -0.016283  -0.045437  -0.037350
     4  H    0.414596  -0.016287  -0.016283   0.495792  -0.045556  -0.037486
     5  Cl   0.069347  -0.045430  -0.045437  -0.045556  17.677387   0.017330
     6  Br   0.054695  -0.037344  -0.037350  -0.037486   0.017330  35.676845
 Mulliken charges:
               1
     1  C   -0.351036
     2  H    0.205069
     3  H    0.205074
     4  H    0.205224
     5  Cl  -0.627641
     6  Br  -0.636690
 Sum of Mulliken charges =  -1.00000
 Mulliken charges with hydrogens summed into heavy atoms:
               1
     1  C    0.264331
     5  Cl  -0.627641
     6  Br  -0.636690
 Electronic spatial extent (au):  <R**2>=           1097.6942
 Charge=             -1.0000 electrons
 Dipole moment (field-independent basis, Debye):
    X=             -3.7661    Y=              0.0003    Z=              0.0033  Tot=              3.7661
 Quadrupole moment (field-independent basis, Debye-Ang):
   XX=            -84.9297   YY=            -43.0678   ZZ=            -43.0675
   XY=              0.0001   XZ=              0.0045   YZ=             -0.0002
 Traceless Quadrupole moment (field-independent basis, Debye-Ang):
   XX=            -27.9080   YY=             13.9539   ZZ=             13.9541
   XY=              0.0001   XZ=              0.0045   YZ=             -0.0002
 Octapole moment (field-independent basis, Debye-Ang**2):
  XXX=           -162.3511  YYY=              0.3352  ZZZ=             -1.1187  XYY=            -21.0226
  XXY=              0.0006  XXZ=              0.0021  XZZ=            -21.0241  YZZ=             -0.3348
  YYZ=              1.1145  XYZ=              0.0002
 Hexadecapole moment (field-independent basis, Debye-Ang**3):
 XXXX=          -1691.8564 YYYY=            -63.5664 ZZZZ=            -63.5691 XXXY=              0.0001
 XXXZ=              0.0191 YYYX=              0.3009 YYYZ=              0.0002 ZZZX=             -0.9909
 ZZZY=             -0.0019 XXYY=           -239.0815 XXZZ=           -239.0824 YYZZ=            -21.1854
 XXYZ=             -0.0011 YYXZ=              1.0055 ZZXY=             -0.3008
 N-N= 1.753297129743D+02 E-N=-7.704673667160D+03  KE= 3.070146059016D+03
 Calling FoFJK, ICntrl=      2127 FMM=F ISym2X=0 I1Cent= 0 IOpClX= 0 NMat=1 NMatS=1 NMatT=0.
 -------------------------------------------------------------------
 Center     Atomic                   Forces (Hartrees/Bohr)
 Number     Number              X              Y              Z
 -------------------------------------------------------------------
      1        6           0.003551689   -0.000001471   -0.000014538
      2        1           0.000024856    0.000168341   -0.000098307
      3        1           0.000012680   -0.000171222   -0.000077193
      4        1           0.000032254    0.000018119    0.000170075
      5       17          -0.001740610   -0.000009218    0.000015999
      6       35          -0.001880869   -0.000004548    0.000003963
 -------------------------------------------------------------------
 Cartesian Forces:  Max     0.003551689 RMS     0.001035128

 GradGradGradGradGradGradGradGradGradGradGradGradGradGradGradGradGradGrad
 Berny optimization.
 Search for a local minimum.
 Step number   1 out of a maximum of    2
 All quantities printed in internal units (Hartrees-Bohrs-Radians)
 Second derivative matrix not updated -- first step.
 The second derivative matrix:
                          X1        Y1        Z1        X2        Y2
           X1           0.45993
           Y1           0.00001   0.80036
           Z1           0.00008   0.00001   0.80037
           X2          -0.11061  -0.00198   0.00141   0.08874
           Y2          -0.00178  -0.28308   0.11881   0.00193   0.26987
           Z2           0.00126   0.11879  -0.20188  -0.00137  -0.13727
           X3          -0.11061   0.00222   0.00100   0.01093  -0.00041
           Y3           0.00199  -0.32510  -0.09455   0.00032  -0.00938
           Z3           0.00089  -0.09453  -0.15988  -0.00048   0.02064
           X4          -0.11059  -0.00024  -0.00250   0.01093   0.00026
           Y4          -0.00022  -0.11932  -0.02427   0.00057   0.02255
           Z4          -0.00225  -0.02427  -0.36578  -0.00015  -0.00220
           X5          -0.07405   0.00000   0.00003   0.00001  -0.00000
           Y5           0.00000  -0.03808   0.00000  -0.01464   0.00012
           Z5           0.00005   0.00000  -0.03806   0.01047  -0.00006
           X6          -0.05407  -0.00000  -0.00001   0.00001  -0.00000
           Y6          -0.00000  -0.03479   0.00000   0.01380  -0.00008
           Z6          -0.00003   0.00000  -0.03476  -0.00987   0.00008
                          Z2        X3        Y3        Z3        X4
           Z2           0.17608
           X3          -0.00041   0.08874
           Y3          -0.01311  -0.00216   0.31842
           Z3           0.02885  -0.00097   0.10924   0.12754
           X4           0.00052   0.01093  -0.00015   0.00056   0.08876
           Y4           0.03155  -0.00059   0.01603  -0.03531   0.00024
           Z4          -0.00308  -0.00004  -0.00156   0.00344   0.00244
           X5           0.00000   0.00001   0.00000   0.00000  -0.00001
           Y5          -0.00005   0.01639   0.00014   0.00004  -0.00175
           Z5           0.00007   0.00744   0.00005   0.00005  -0.01792
           X6           0.00000   0.00000   0.00000   0.00000  -0.00001
           Y6           0.00009  -0.01545  -0.00011  -0.00007   0.00165
           Z6          -0.00003  -0.00702  -0.00006  -0.00000   0.01689
                          Y4        Z4        X5        Y5        Z5
           Y4           0.08067
           Z4           0.02804   0.36541
           X5           0.00000   0.00000   0.07405
           Y5           0.00003   0.00001  -0.00000   0.02552
           Z5           0.00001   0.00016  -0.00004   0.00000   0.02552
           X6           0.00000   0.00000  -0.00000  -0.00000  -0.00001
           Y6           0.00003  -0.00002   0.00000   0.01227   0.00000
           Z6          -0.00002  -0.00015   0.00001   0.00000   0.01227
                          X6        Y6        Z6
           X6           0.05408
           Y6           0.00000   0.02268
           Z6           0.00002   0.00000   0.02268
 ITU=  0
     Eigenvalues ---    0.03455   0.03455   0.04293   0.07277   0.08241
     Eigenvalues ---    0.08242   0.17067   0.17069   0.36798   0.55757
     Eigenvalues ---    1.08025   1.08034
 Angle between quadratic step and forces=  55.04 degrees.
 Linear search not attempted -- first point.
 B after Tr=    -0.009890   -0.000063    0.000093
         Rot=    1.000000    0.000000   -0.000004    0.000001 Ang=   0.00 deg.
 Variable       Old X    -DE/DX   Delta X   Delta X   Delta X     New X
                                 (Linear)    (Quad)   (Total)
    X1        1.65786   0.00355   0.00000   0.01950   0.00961   1.66747
    Y1        0.00017  -0.00000   0.00000   0.00011   0.00004   0.00021
    Z1        0.00263  -0.00001   0.00000  -0.00019  -0.00011   0.00252
    X2        1.64066   0.00002   0.00000   0.01972   0.00983   1.65049
    Y2       -1.64971   0.00017   0.00000   0.00060   0.00053  -1.64918
    Z2        1.18248  -0.00010   0.00000  -0.00041  -0.00033   1.18215
    X3        1.64066   0.00001   0.00000   0.01958   0.00970   1.65036
    Y3        1.84690  -0.00017   0.00000  -0.00037  -0.00044   1.84646
    Z3        0.84148  -0.00008   0.00000  -0.00036  -0.00027   0.84120
    X4        1.64006   0.00003   0.00000   0.01981   0.00991   1.64997
    Y4       -0.19674   0.00002   0.00000   0.00021   0.00015  -0.19659
    Z4       -2.01594   0.00017   0.00000   0.00027   0.00035  -2.01559
    X5        6.04083  -0.00174   0.00000  -0.00400  -0.01389   6.02694
    Y5       -0.00004  -0.00001   0.00000  -0.00010  -0.00017  -0.00021
    Z5       -0.00060   0.00002   0.00000   0.00012   0.00017  -0.00044
    X6       -2.99164  -0.00188   0.00000  -0.01528  -0.02517  -3.01681
    Y6       -0.00002  -0.00000   0.00000  -0.00005  -0.00011  -0.00013
    Z6       -0.00025   0.00000   0.00000   0.00008   0.00019  -0.00005
         Item               Value     Threshold  Converged?
 Maximum Force            0.003552     0.000450     NO 
 RMS     Force            0.001035     0.000300     NO 
 Maximum Displacement     0.025168     0.001800     NO 
 RMS     Displacement     0.008195     0.001200     NO 
 Predicted change in Energy=-5.332036D-05
 GradGradGradGradGradGradGradGradGradGradGradGradGradGradGradGradGradGrad

 1\1\GINC-FS\Force\RM062X\6-311G(d,p)\C1H3Br1Cl1(1-)\XINYAN\22-Jan-2019
 \0\\# M062X/6-311G** force nosymm int=ultrafine\\Title\\-1,1\C,0.8773,
 0.00009,0.00139\H,0.8682,-0.87299,0.62574\H,0.8682,0.97734,0.44529\H,0
 .86788,-0.10411,-1.06679\Cl,3.19667,-0.00002,-0.00032\Br,-1.58311,-0.0
 0001,-0.00013\\Version=ES64L-G16RevA.03\HF=-3074.3375702\RMSD=3.995e-0
 9\RMSF=1.035e-03\Dipole=-1.270976,0.0001291,0.0013659\Quadrupole=-20.7
 489281,10.3743624,10.3745658,0.00006,0.0033675,-0.0001174\PG=C01 [X(C1
 H3Br1Cl1)]\\@


 THEREFORE SHALL EVIL COME UPON THEE...
 THOU SHALT NOT KNOW FROM WHENCE IT RISETH...
 AND MISCHIEF SHALL FALL UPON THEE...
 THOU SHALT NOT BE ABLE TO PUT IT OFF...
 AND DESOLATION SHALL COME UPON THEE SUDDENLY...
 WHICH THOU SHALT NOT KNOW...

                                         ISAIAH 47.11
 Job cpu time:       0 days  0 hours  0 minutes 38.0 seconds.
 Elapsed time:       0 days  0 hours  0 minutes  8.1 seconds.
 File lengths (MBytes):  RWF=     10 Int=      0 D2E=      0 Chk=      2 Scr=      1
 Normal termination of Gaussian 16 at Tue Jan 22 16:53:20 2019.
