 Entering Gaussian System, Link 0=g16
 Input=CH3BrCl-39.gjf
 Output=CH3BrCl-39.log
 Initial command:
 /home/xinyan/g16/l1.exe "/scratch/tmp/Gau-14482.inp" -scrdir="/scratch/tmp/"
 Entering Link 1 = /home/xinyan/g16/l1.exe PID=     14483.
  
 Copyright (c) 1988,1990,1992,1993,1995,1998,2003,2009,2016,
            Gaussian, Inc.  All Rights Reserved.
  
 This is part of the Gaussian(R) 16 program.  It is based on
 the Gaussian(R) 09 system (copyright 2009, Gaussian, Inc.),
 the Gaussian(R) 03 system (copyright 2003, Gaussian, Inc.),
 the Gaussian(R) 98 system (copyright 1998, Gaussian, Inc.),
 the Gaussian(R) 94 system (copyright 1995, Gaussian, Inc.),
 the Gaussian 92(TM) system (copyright 1992, Gaussian, Inc.),
 the Gaussian 90(TM) system (copyright 1990, Gaussian, Inc.),
 the Gaussian 88(TM) system (copyright 1988, Gaussian, Inc.),
 the Gaussian 86(TM) system (copyright 1986, Carnegie Mellon
 University), and the Gaussian 82(TM) system (copyright 1983,
 Carnegie Mellon University). Gaussian is a federally registered
 trademark of Gaussian, Inc.
  
 This software contains proprietary and confidential information,
 including trade secrets, belonging to Gaussian, Inc.
  
 This software is provided under written license and may be
 used, copied, transmitted, or stored only in accord with that
 written license.
  
 The following legend is applicable only to US Government
 contracts under FAR:
  
                    RESTRICTED RIGHTS LEGEND
  
 Use, reproduction and disclosure by the US Government is
 subject to restrictions as set forth in subparagraphs (a)
 and (c) of the Commercial Computer Software - Restricted
 Rights clause in FAR 52.227-19.
  
 Gaussian, Inc.
 340 Quinnipiac St., Bldg. 40, Wallingford CT 06492
  
  
 ---------------------------------------------------------------
 Warning -- This program may not be used in any manner that
 competes with the business of Gaussian, Inc. or will provide
 assistance to any competitor of Gaussian, Inc.  The licensee
 of this program is prohibited from giving any competitor of
 Gaussian, Inc. access to this program.  By using this program,
 the user acknowledges that Gaussian, Inc. is engaged in the
 business of creating and licensing software in the field of
 computational chemistry and represents and warrants to the
 licensee that it is not a competitor of Gaussian, Inc. and that
 it will not use this program in any manner prohibited above.
 ---------------------------------------------------------------
  

 Cite this work as:
 Gaussian 16, Revision A.03,
 M. J. Frisch, G. W. Trucks, H. B. Schlegel, G. E. Scuseria, 
 M. A. Robb, J. R. Cheeseman, G. Scalmani, V. Barone, 
 G. A. Petersson, H. Nakatsuji, X. Li, M. Caricato, A. V. Marenich, 
 J. Bloino, B. G. Janesko, R. Gomperts, B. Mennucci, H. P. Hratchian, 
 J. V. Ortiz, A. F. Izmaylov, J. L. Sonnenberg, D. Williams-Young, 
 F. Ding, F. Lipparini, F. Egidi, J. Goings, B. Peng, A. Petrone, 
 T. Henderson, D. Ranasinghe, V. G. Zakrzewski, J. Gao, N. Rega, 
 G. Zheng, W. Liang, M. Hada, M. Ehara, K. Toyota, R. Fukuda, 
 J. Hasegawa, M. Ishida, T. Nakajima, Y. Honda, O. Kitao, H. Nakai, 
 T. Vreven, K. Throssell, J. A. Montgomery, Jr., J. E. Peralta, 
 F. Ogliaro, M. J. Bearpark, J. J. Heyd, E. N. Brothers, K. N. Kudin, 
 V. N. Staroverov, T. A. Keith, R. Kobayashi, J. Normand, 
 K. Raghavachari, A. P. Rendell, J. C. Burant, S. S. Iyengar, 
 J. Tomasi, M. Cossi, J. M. Millam, M. Klene, C. Adamo, R. Cammi, 
 J. W. Ochterski, R. L. Martin, K. Morokuma, O. Farkas, 
 J. B. Foresman, and D. J. Fox, Gaussian, Inc., Wallingford CT, 2016.
 
 ******************************************
 Gaussian 16:  ES64L-G16RevA.03 25-Dec-2016
                22-Jan-2019 
 ******************************************
 %nproc=5
 Will use up to    5 processors via shared memory.
 -------------------------------------------
 # M062X/6-311G** force nosymm int=ultrafine
 -------------------------------------------
 1/10=7,30=1,38=1/1,3;
 2/12=2,15=1,17=6,18=5,40=1/2;
 3/5=4,6=6,7=101,11=2,25=1,30=1,71=1,74=-55,75=-5/1,2,3;
 4//1;
 5/5=2,38=5/2;
 6/7=2,8=2,9=2,10=2,28=1/1;
 7/29=1,30=1/1,2,3,16;
 1/10=7,30=1/3;
 99//99;
 -----
 Title
 -----
 Symbolic Z-matrix:
 Charge = -1 Multiplicity = 1
 C                     1.13487   0.00014   0.00114 
 H                     0.90148  -0.85464   0.61337 
 H                     0.90146   0.9576    0.43556 
 H                     0.90061  -0.10236  -1.04503 
 Cl                    3.15191  -0.00004  -0.0002 
 Br                   -1.60371  -0.00001  -0.00014 
 

 GradGradGradGradGradGradGradGradGradGradGradGradGradGradGradGradGradGrad
 Berny optimization.
 Initialization pass.
 Trust Radius=3.00D-01 FncErr=1.00D-07 GrdErr=1.00D-07 EigMax=2.50D+02 EigMin=1.00D-04
 Number of steps in this run=      2 maximum allowed number of steps=      2.
 GradGradGradGradGradGradGradGradGradGradGradGradGradGradGradGradGradGrad

                          Input orientation:                          
 ---------------------------------------------------------------------
 Center     Atomic      Atomic             Coordinates (Angstroms)
 Number     Number       Type             X           Y           Z
 ---------------------------------------------------------------------
      1          6           0        1.134870    0.000140    0.001140
      2          1           0        0.901480   -0.854640    0.613370
      3          1           0        0.901460    0.957600    0.435560
      4          1           0        0.900610   -0.102360   -1.045030
      5         17           0        3.151910   -0.000040   -0.000200
      6         35           0       -1.603710   -0.000010   -0.000140
 ---------------------------------------------------------------------
                    Distance matrix (angstroms):
                    1          2          3          4          5
     1  C    0.000000
     2  H    1.077008   0.000000
     3  H    1.077001   1.820942   0.000000
     4  H    1.076966   1.821048   1.820896   0.000000
     5  Cl   2.017040   2.484199   2.484248   2.484047   0.000000
     6  Br   2.738580   2.717124   2.717118   2.715491   4.755620
                    6
     6  Br   0.000000
 Symmetry turned off by external request.
 This structure is nearly, but not quite of a higher symmetry.
 Consider Symm=Loose if the higher symmetry is desired.
 Stoichiometry    CH3BrCl(1-)
 Framework group  C1[X(CH3BrCl)]
 Deg. of freedom    12
 Full point group                 C1      NOp   1
 Rotational constants (GHZ):         151.2262609           0.8867081           0.8867076
 Standard basis: 6-311G(d,p) (5D, 7F)
   106 basis functions,   195 primitive gaussians,   111 cartesian basis functions
    31 alpha electrons       31 beta electrons
       nuclear repulsion energy       174.5801439882 Hartrees.
 NAtoms=    6 NActive=    6 NUniq=    6 SFac= 1.00D+00 NAtFMM=   60 NAOKFM=F Big=F
 Integral buffers will be    131072 words long.
 Raffenetti 2 integral format.
 Two-electron integral symmetry is turned off.
 One-electron integrals computed using PRISM.
 NBasis=   106 RedAO= T EigKep=  1.11D-02  NBF=   106
 NBsUse=   106 1.00D-06 EigRej= -1.00D+00 NBFU=   106
 ExpMin= 1.03D-01 ExpMax= 4.40D+05 ExpMxC= 1.51D+04 IAcc=3 IRadAn=         5 AccDes= 0.00D+00
 Harris functional with IExCor= 1009 and IRadAn=       5 diagonalized for initial guess.
 HarFok:  IExCor= 1009 AccDes= 0.00D+00 IRadAn=         5 IDoV= 1 UseB2=F ITyADJ=14
 ICtDFT=  3500011 ScaDFX=  1.000000  1.000000  1.000000  1.000000
 FoFCou: FMM=F IPFlag=           0 FMFlag=      100000 FMFlg1=           0
         NFxFlg=           0 DoJE=T BraDBF=F KetDBF=T FulRan=T
         wScrn=  0.000000 ICntrl=       500 IOpCl=  0 I1Cent=   200000004 NGrid=           0
         NMat0=    1 NMatS0=      1 NMatT0=    0 NMatD0=    1 NMtDS0=    0 NMtDT0=    0
 Symmetry not used in FoFCou.
 Keep R1 ints in memory in canonical form, NReq=20756204.
 Requested convergence on RMS density matrix=1.00D-08 within 128 cycles.
 Requested convergence on MAX density matrix=1.00D-06.
 Requested convergence on             energy=1.00D-06.
 No special actions if energy rises.
 Integral accuracy reduced to 1.0D-05 until final iterations.
 Initial convergence to 1.0D-05 achieved.  Increase integral accuracy.
 SCF Done:  E(RM062X) =  -3074.34826621     A.U. after   14 cycles
            NFock= 14  Conv=0.33D-08     -V/T= 2.0014

 **********************************************************************

            Population analysis using the SCF density.

 **********************************************************************

 Alpha  occ. eigenvalues -- -485.05627-102.49959 -63.04868 -56.87462 -56.87439
 Alpha  occ. eigenvalues --  -56.87439 -10.45222  -9.64067  -8.73483  -7.36464
 Alpha  occ. eigenvalues --   -7.35982  -7.35982  -6.55689  -6.55576  -6.55575
 Alpha  occ. eigenvalues --   -2.58870  -2.58834  -2.58834  -2.58739  -2.58739
 Alpha  occ. eigenvalues --   -0.75929  -0.63214  -0.56683  -0.36651  -0.36649
 Alpha  occ. eigenvalues --   -0.28375  -0.21534  -0.21533  -0.10734  -0.10733
 Alpha  occ. eigenvalues --   -0.10478
 Alpha virt. eigenvalues --    0.17790   0.23094   0.28881   0.28887   0.43735
 Alpha virt. eigenvalues --    0.46774   0.46777   0.48548   0.48548   0.51271
 Alpha virt. eigenvalues --    0.55519   0.55524   0.65833   0.70227   0.73510
 Alpha virt. eigenvalues --    0.76887   0.76893   0.90743   0.93515   0.93517
 Alpha virt. eigenvalues --    0.93848   0.93849   0.96513   1.07306   1.07310
 Alpha virt. eigenvalues --    1.11218   1.11219   1.21769   1.24655   1.30608
 Alpha virt. eigenvalues --    1.30613   1.60710   1.64934   1.64941   1.79829
 Alpha virt. eigenvalues --    1.89564   1.89566   2.02121   2.15058   2.15061
 Alpha virt. eigenvalues --    2.24990   2.24995   2.28521   2.36513   2.36515
 Alpha virt. eigenvalues --    2.49539   2.59281   2.61015   2.61016   2.74023
 Alpha virt. eigenvalues --    2.74026   3.10970   3.17574   3.89459   3.89468
 Alpha virt. eigenvalues --    4.55084   4.55085   4.56108   4.56111   4.71868
 Alpha virt. eigenvalues --    6.78695   7.80637   7.80640   7.87089   9.84120
 Alpha virt. eigenvalues --   24.08634  25.69814  25.69817  26.18379  48.37174
 Alpha virt. eigenvalues --  215.89106 290.97092 290.97094 291.039231020.85955
          Condensed to atoms (all electrons):
               1          2          3          4          5          6
     1  C    5.020371   0.411024   0.411016   0.411100   0.117844  -0.020721
     2  H    0.411024   0.498536  -0.017733  -0.017699  -0.053991  -0.015830
     3  H    0.411016  -0.017733   0.498554  -0.017715  -0.053980  -0.015826
     4  H    0.411100  -0.017699  -0.017715   0.498438  -0.054041  -0.015909
     5  Cl   0.117844  -0.053991  -0.053980  -0.054041  17.416381   0.014953
     6  Br  -0.020721  -0.015830  -0.015826  -0.015909   0.014953  35.902736
 Mulliken charges:
               1
     1  C   -0.350635
     2  H    0.195693
     3  H    0.195685
     4  H    0.195825
     5  Cl  -0.387165
     6  Br  -0.849403
 Sum of Mulliken charges =  -1.00000
 Mulliken charges with hydrogens summed into heavy atoms:
               1
     1  C    0.236568
     5  Cl  -0.387165
     6  Br  -0.849403
 Electronic spatial extent (au):  <R**2>=           1093.3488
 Charge=             -1.0000 electrons
 Dipole moment (field-independent basis, Debye):
    X=              1.2632    Y=              0.0005    Z=              0.0026  Tot=              1.2632
 Quadrupole moment (field-independent basis, Debye-Ang):
   XX=            -75.9166   YY=            -43.1824   ZZ=            -43.1813
   XY=              0.0001   XZ=              0.0018   YZ=             -0.0004
 Traceless Quadrupole moment (field-independent basis, Debye-Ang):
   XX=            -21.8232   YY=             10.9111   ZZ=             10.9121
   XY=              0.0001   XZ=              0.0018   YZ=             -0.0004
 Octapole moment (field-independent basis, Debye-Ang**2):
  XXX=           -101.7357  YYY=              0.2970  ZZZ=             -0.9891  XYY=            -17.4519
  XXY=              0.0004  XXZ=             -0.0010  XZZ=            -17.4537  YZZ=             -0.2974
  YYZ=              0.9832  XYZ=             -0.0002
 Hexadecapole moment (field-independent basis, Debye-Ang**3):
 XXXX=          -1517.5232 YYYY=            -63.8580 ZZZZ=            -63.8595 XXXY=             -0.0025
 XXXZ=             -0.0331 YYYX=              0.2825 YYYZ=              0.0006 ZZZX=             -0.9473
 ZZZY=             -0.0018 XXYY=           -232.2093 XXZZ=           -232.2098 YYZZ=            -21.2831
 XXYZ=             -0.0012 YYXZ=              0.9291 ZZXY=             -0.2818
 N-N= 1.745801439882D+02 E-N=-7.703923850649D+03  KE= 3.070186776449D+03
 Calling FoFJK, ICntrl=      2127 FMM=F ISym2X=0 I1Cent= 0 IOpClX= 0 NMat=1 NMatS=1 NMatT=0.
 -------------------------------------------------------------------
 Center     Atomic                   Forces (Hartrees/Bohr)
 Number     Number              X              Y              Z
 -------------------------------------------------------------------
      1        6           0.027851678   -0.000002225   -0.000013305
      2        1           0.000698372    0.000294350   -0.000211739
      3        1           0.000699416   -0.000332761   -0.000147829
      4        1           0.000688665    0.000037790    0.000367130
      5       17          -0.014297551   -0.000001150    0.000014702
      6       35          -0.015640580    0.000003996   -0.000008958
 -------------------------------------------------------------------
 Cartesian Forces:  Max     0.027851678 RMS     0.008255017

 GradGradGradGradGradGradGradGradGradGradGradGradGradGradGradGradGradGrad
 Berny optimization.
 Search for a local minimum.
 Step number   1 out of a maximum of    2
 All quantities printed in internal units (Hartrees-Bohrs-Radians)
 Second derivative matrix not updated -- first step.
 The second derivative matrix:
                          X1        Y1        Z1        X2        Y2
           X1           0.38494
           Y1           0.00001   0.69150
           Z1           0.00016  -0.00003   0.69158
           X2          -0.08012  -0.05613   0.04018   0.06568
           Y2          -0.05116  -0.26312   0.11887   0.05376   0.25362
           Z2           0.03663   0.11887  -0.18231  -0.03850  -0.13303
           X3          -0.08012   0.06287   0.02851   0.00721  -0.00850
           Y3           0.05731  -0.30540  -0.09448   0.00657  -0.01081
           Z3           0.02599  -0.09448  -0.14003  -0.01060   0.01926
           X4          -0.08024  -0.00676  -0.06893   0.00723   0.00590
           Y4          -0.00616  -0.09956  -0.02436   0.01218   0.01731
           Z4          -0.06285  -0.02436  -0.34581  -0.00281  -0.00302
           X5          -0.14446   0.00001   0.00008   0.00001  -0.00000
           Y5           0.00001  -0.02343   0.00000  -0.01639   0.00300
           Z5           0.00008   0.00000  -0.02343   0.01173  -0.00208
           X6           0.00000   0.00000   0.00000   0.00000   0.00000
           Y6           0.00000   0.00000   0.00000   0.00000   0.00000
           Z6           0.00000   0.00000   0.00000   0.00000   0.00000
                          Z2        X3        Y3        Z3        X4
           Z2           0.16317
           X3          -0.00912   0.06568
           Y3          -0.01259  -0.06023   0.30093
           Z3           0.02285  -0.02732   0.10574   0.11587
           X4           0.01100   0.00723  -0.00365   0.01193   0.06580
           Y4           0.02882  -0.01249   0.01154  -0.03215   0.00647
           Z4          -0.00529  -0.00039  -0.00031   0.00048   0.06606
           X5           0.00000   0.00001   0.00000   0.00000  -0.00001
           Y5          -0.00206   0.01836   0.00373   0.00164  -0.00197
           Z5           0.00157   0.00833   0.00165   0.00084  -0.02006
           X6           0.00000   0.00000   0.00000   0.00000   0.00000
           Y6           0.00000   0.00000   0.00000   0.00000   0.00000
           Z6           0.00000   0.00000   0.00000   0.00000   0.00000
                          Y4        Z4        X5        Y5        Z5
           Y4           0.07056
           Z4           0.02726   0.34617
           X5           0.00000   0.00000   0.14446
           Y5           0.00014   0.00043  -0.00001   0.01657
           Z5           0.00043   0.00445  -0.00008  -0.00000   0.01657
           X6           0.00000   0.00000   0.00000   0.00000   0.00000
           Y6           0.00000   0.00000   0.00000   0.00000   0.00000
           Z6           0.00000   0.00000   0.00000   0.00000   0.00000
                          X6        Y6        Z6
           X6           1.00000
           Y6           0.00000   1.00000
           Z6           0.00000   0.00000   1.00000
 ITU=  0
     Eigenvalues ---    0.03341   0.03342   0.06313   0.06314   0.07162
     Eigenvalues ---    0.14846   0.14847   0.28991   0.44902   0.55992
     Eigenvalues ---    0.98378   0.98391
 Angle between quadratic step and forces=  47.91 degrees.
 Linear search not attempted -- first point.
 B after Tr=    -0.033326   -0.000000   -0.000047
         Rot=    1.000000   -0.000000    0.000007   -0.000001 Ang=   0.00 deg.
 Variable       Old X    -DE/DX   Delta X   Delta X   Delta X     New X
                                 (Linear)    (Quad)   (Total)
    X1        2.14459   0.02785   0.00000   0.08293   0.04961   2.19420
    Y1        0.00026  -0.00000   0.00000  -0.00001  -0.00001   0.00026
    Z1        0.00215  -0.00001   0.00000   0.00001  -0.00000   0.00215
    X2        1.70355   0.00070   0.00000   0.06842   0.03508   1.73863
    Y2       -1.61504   0.00029   0.00000   0.00298   0.00298  -1.61206
    Z2        1.15910  -0.00021   0.00000  -0.00209  -0.00211   1.15699
    X3        1.70351   0.00070   0.00000   0.06842   0.03508   1.73860
    Y3        1.80960  -0.00033   0.00000  -0.00335  -0.00334   1.80626
    Z3        0.82309  -0.00015   0.00000  -0.00147  -0.00150   0.82159
    X4        1.70191   0.00069   0.00000   0.06816   0.03486   1.73677
    Y4       -0.19343   0.00004   0.00000   0.00036   0.00036  -0.19307
    Z4       -1.97482   0.00037   0.00000   0.00372   0.00369  -1.97113
    X5        5.95625  -0.01430   0.00000  -0.06268  -0.09600   5.86024
    Y5       -0.00008  -0.00000   0.00000   0.00001   0.00002  -0.00006
    Z5       -0.00038   0.00001   0.00000   0.00002   0.00005  -0.00032
    X6       -3.03057  -0.01564   0.00000  -0.02531  -0.05863  -3.08921
    Y6       -0.00002   0.00000   0.00000  -0.00000  -0.00001  -0.00002
    Z6       -0.00026  -0.00001   0.00000  -0.00004  -0.00013  -0.00040
         Item               Value     Threshold  Converged?
 Maximum Force            0.027852     0.000450     NO 
 RMS     Force            0.008255     0.000300     NO 
 Maximum Displacement     0.096004     0.001800     NO 
 RMS     Displacement     0.032346     0.001200     NO 
 Predicted change in Energy=-4.754929D-04
 GradGradGradGradGradGradGradGradGradGradGradGradGradGradGradGradGradGrad

 1\1\GINC-FS\Force\RM062X\6-311G(d,p)\C1H3Br1Cl1(1-)\XINYAN\22-Jan-2019
 \0\\# M062X/6-311G** force nosymm int=ultrafine\\Title\\-1,1\C,1.13487
 ,0.00014,0.00114\H,0.90148,-0.85464,0.61337\H,0.90146,0.9576,0.43556\H
 ,0.90061,-0.10236,-1.04503\Cl,3.15191,-0.00004,-0.0002\Br,-1.60371,-0.
 00001,-0.00014\\Version=ES64L-G16RevA.03\HF=-3074.3482662\RMSD=3.302e-
 09\RMSF=8.255e-03\Dipole=0.7127675,0.0002045,0.0010986\Quadrupole=-16.
 2250004,8.1121025,8.1128979,0.0000908,0.0013082,-0.0002964\PG=C01 [X(C
 1H3Br1Cl1)]\\@


 THOSE WHO ARE UNABLE TO LEARN FROM PAST MEETINGS
 ARE CONDEMNED TO REPEAT THEM.
 Job cpu time:       0 days  0 hours  0 minutes 39.0 seconds.
 Elapsed time:       0 days  0 hours  0 minutes  8.7 seconds.
 File lengths (MBytes):  RWF=     10 Int=      0 D2E=      0 Chk=      2 Scr=      1
 Normal termination of Gaussian 16 at Tue Jan 22 16:54:47 2019.
