 Entering Gaussian System, Link 0=g16
 Input=CH3BrCl-49.gjf
 Output=CH3BrCl-49.log
 Initial command:
 /home/xinyan/g16/l1.exe "/scratch/tmp/Gau-15158.inp" -scrdir="/scratch/tmp/"
 Entering Link 1 = /home/xinyan/g16/l1.exe PID=     15159.
  
 Copyright (c) 1988,1990,1992,1993,1995,1998,2003,2009,2016,
            Gaussian, Inc.  All Rights Reserved.
  
 This is part of the Gaussian(R) 16 program.  It is based on
 the Gaussian(R) 09 system (copyright 2009, Gaussian, Inc.),
 the Gaussian(R) 03 system (copyright 2003, Gaussian, Inc.),
 the Gaussian(R) 98 system (copyright 1998, Gaussian, Inc.),
 the Gaussian(R) 94 system (copyright 1995, Gaussian, Inc.),
 the Gaussian 92(TM) system (copyright 1992, Gaussian, Inc.),
 the Gaussian 90(TM) system (copyright 1990, Gaussian, Inc.),
 the Gaussian 88(TM) system (copyright 1988, Gaussian, Inc.),
 the Gaussian 86(TM) system (copyright 1986, Carnegie Mellon
 University), and the Gaussian 82(TM) system (copyright 1983,
 Carnegie Mellon University). Gaussian is a federally registered
 trademark of Gaussian, Inc.
  
 This software contains proprietary and confidential information,
 including trade secrets, belonging to Gaussian, Inc.
  
 This software is provided under written license and may be
 used, copied, transmitted, or stored only in accord with that
 written license.
  
 The following legend is applicable only to US Government
 contracts under FAR:
  
                    RESTRICTED RIGHTS LEGEND
  
 Use, reproduction and disclosure by the US Government is
 subject to restrictions as set forth in subparagraphs (a)
 and (c) of the Commercial Computer Software - Restricted
 Rights clause in FAR 52.227-19.
  
 Gaussian, Inc.
 340 Quinnipiac St., Bldg. 40, Wallingford CT 06492
  
  
 ---------------------------------------------------------------
 Warning -- This program may not be used in any manner that
 competes with the business of Gaussian, Inc. or will provide
 assistance to any competitor of Gaussian, Inc.  The licensee
 of this program is prohibited from giving any competitor of
 Gaussian, Inc. access to this program.  By using this program,
 the user acknowledges that Gaussian, Inc. is engaged in the
 business of creating and licensing software in the field of
 computational chemistry and represents and warrants to the
 licensee that it is not a competitor of Gaussian, Inc. and that
 it will not use this program in any manner prohibited above.
 ---------------------------------------------------------------
  

 Cite this work as:
 Gaussian 16, Revision A.03,
 M. J. Frisch, G. W. Trucks, H. B. Schlegel, G. E. Scuseria, 
 M. A. Robb, J. R. Cheeseman, G. Scalmani, V. Barone, 
 G. A. Petersson, H. Nakatsuji, X. Li, M. Caricato, A. V. Marenich, 
 J. Bloino, B. G. Janesko, R. Gomperts, B. Mennucci, H. P. Hratchian, 
 J. V. Ortiz, A. F. Izmaylov, J. L. Sonnenberg, D. Williams-Young, 
 F. Ding, F. Lipparini, F. Egidi, J. Goings, B. Peng, A. Petrone, 
 T. Henderson, D. Ranasinghe, V. G. Zakrzewski, J. Gao, N. Rega, 
 G. Zheng, W. Liang, M. Hada, M. Ehara, K. Toyota, R. Fukuda, 
 J. Hasegawa, M. Ishida, T. Nakajima, Y. Honda, O. Kitao, H. Nakai, 
 T. Vreven, K. Throssell, J. A. Montgomery, Jr., J. E. Peralta, 
 F. Ogliaro, M. J. Bearpark, J. J. Heyd, E. N. Brothers, K. N. Kudin, 
 V. N. Staroverov, T. A. Keith, R. Kobayashi, J. Normand, 
 K. Raghavachari, A. P. Rendell, J. C. Burant, S. S. Iyengar, 
 J. Tomasi, M. Cossi, J. M. Millam, M. Klene, C. Adamo, R. Cammi, 
 J. W. Ochterski, R. L. Martin, K. Morokuma, O. Farkas, 
 J. B. Foresman, and D. J. Fox, Gaussian, Inc., Wallingford CT, 2016.
 
 ******************************************
 Gaussian 16:  ES64L-G16RevA.03 25-Dec-2016
                22-Jan-2019 
 ******************************************
 %nproc=5
 Will use up to    5 processors via shared memory.
 -------------------------------------------
 # M062X/6-311G** force nosymm int=ultrafine
 -------------------------------------------
 1/10=7,30=1,38=1/1,3;
 2/12=2,15=1,17=6,18=5,40=1/2;
 3/5=4,6=6,7=101,11=2,25=1,30=1,71=1,74=-55,75=-5/1,2,3;
 4//1;
 5/5=2,38=5/2;
 6/7=2,8=2,9=2,10=2,28=1/1;
 7/29=1,30=1/1,2,3,16;
 1/10=7,30=1/3;
 99//99;
 -----
 Title
 -----
 Symbolic Z-matrix:
 Charge = -1 Multiplicity = 1
 C                     1.33873   0.00041   0.00147 
 H                     1.00724  -0.83622   0.60058 
 H                     1.00752   0.93743   0.42707 
 H                     1.0057   -0.09946  -1.02223 
 Cl                    3.16812  -0.00009  -0.00025 
 Br                   -1.64593  -0.00005  -0.00018 
 

 GradGradGradGradGradGradGradGradGradGradGradGradGradGradGradGradGradGrad
 Berny optimization.
 Initialization pass.
 Trust Radius=3.00D-01 FncErr=1.00D-07 GrdErr=1.00D-07 EigMax=2.50D+02 EigMin=1.00D-04
 Number of steps in this run=      2 maximum allowed number of steps=      2.
 GradGradGradGradGradGradGradGradGradGradGradGradGradGradGradGradGradGrad

                          Input orientation:                          
 ---------------------------------------------------------------------
 Center     Atomic      Atomic             Coordinates (Angstroms)
 Number     Number       Type             X           Y           Z
 ---------------------------------------------------------------------
      1          6           0        1.338730    0.000410    0.001470
      2          1           0        1.007240   -0.836220    0.600580
      3          1           0        1.007520    0.937430    0.427070
      4          1           0        1.005700   -0.099460   -1.022230
      5         17           0        3.168120   -0.000090   -0.000250
      6         35           0       -1.645930   -0.000050   -0.000180
 ---------------------------------------------------------------------
                    Distance matrix (angstroms):
                    1          2          3          4          5
     1  C    0.000000
     2  H    1.081096   0.000000
     3  H    1.081130   1.782117   0.000000
     4  H    1.081131   1.782226   1.782025   0.000000
     5  Cl   1.829391   2.393640   2.393687   2.393821   0.000000
     6  Br   2.984660   2.845945   2.846438   2.843521   4.814050
                    6
     6  Br   0.000000
 Symmetry turned off by external request.
 This structure is nearly, but not quite of a higher symmetry.
 Consider Symm=Loose if the higher symmetry is desired.
 Stoichiometry    CH3BrCl(1-)
 Framework group  C1[X(CH3BrCl)]
 Deg. of freedom    12
 Full point group                 C1      NOp   1
 Rotational constants (GHZ):         157.8887796           0.8551979           0.8551973
 Standard basis: 6-311G(d,p) (5D, 7F)
   106 basis functions,   195 primitive gaussians,   111 cartesian basis functions
    31 alpha electrons       31 beta electrons
       nuclear repulsion energy       172.6462467548 Hartrees.
 NAtoms=    6 NActive=    6 NUniq=    6 SFac= 1.00D+00 NAtFMM=   60 NAOKFM=F Big=F
 Integral buffers will be    131072 words long.
 Raffenetti 2 integral format.
 Two-electron integral symmetry is turned off.
 One-electron integrals computed using PRISM.
 NBasis=   106 RedAO= T EigKep=  1.08D-02  NBF=   106
 NBsUse=   106 1.00D-06 EigRej= -1.00D+00 NBFU=   106
 ExpMin= 1.03D-01 ExpMax= 4.40D+05 ExpMxC= 1.51D+04 IAcc=3 IRadAn=         5 AccDes= 0.00D+00
 Harris functional with IExCor= 1009 and IRadAn=       5 diagonalized for initial guess.
 HarFok:  IExCor= 1009 AccDes= 0.00D+00 IRadAn=         5 IDoV= 1 UseB2=F ITyADJ=14
 ICtDFT=  3500011 ScaDFX=  1.000000  1.000000  1.000000  1.000000
 FoFCou: FMM=F IPFlag=           0 FMFlag=      100000 FMFlg1=           0
         NFxFlg=           0 DoJE=T BraDBF=F KetDBF=T FulRan=T
         wScrn=  0.000000 ICntrl=       500 IOpCl=  0 I1Cent=   200000004 NGrid=           0
         NMat0=    1 NMatS0=      1 NMatT0=    0 NMatD0=    1 NMtDS0=    0 NMtDT0=    0
 Symmetry not used in FoFCou.
 Keep R1 ints in memory in canonical form, NReq=20756204.
 Requested convergence on RMS density matrix=1.00D-08 within 128 cycles.
 Requested convergence on MAX density matrix=1.00D-06.
 Requested convergence on             energy=1.00D-06.
 No special actions if energy rises.
 Integral accuracy reduced to 1.0D-05 until final iterations.
 Initial convergence to 1.0D-05 achieved.  Increase integral accuracy.
 SCF Done:  E(RM062X) =  -3074.35671468     A.U. after   13 cycles
            NFock= 13  Conv=0.48D-08     -V/T= 2.0013

 **********************************************************************

            Population analysis using the SCF density.

 **********************************************************************

 Alpha  occ. eigenvalues -- -485.03947-102.52584 -63.03173 -56.85756 -56.85754
 Alpha  occ. eigenvalues --  -56.85754 -10.44128  -9.66811  -8.71770  -7.39258
 Alpha  occ. eigenvalues --   -7.38697  -7.38697  -6.53922  -6.53894  -6.53894
 Alpha  occ. eigenvalues --   -2.57110  -2.57100  -2.57100  -2.57078  -2.57078
 Alpha  occ. eigenvalues --   -0.80603  -0.62288  -0.55284  -0.36784  -0.36780
 Alpha  occ. eigenvalues --   -0.32620  -0.23006  -0.23005  -0.09216  -0.09215
 Alpha  occ. eigenvalues --   -0.09148
 Alpha virt. eigenvalues --    0.20841   0.23699   0.28668   0.28676   0.43418
 Alpha virt. eigenvalues --    0.46567   0.46569   0.47256   0.47257   0.53381
 Alpha virt. eigenvalues --    0.56580   0.56587   0.60886   0.72138   0.74128
 Alpha virt. eigenvalues --    0.76792   0.76798   0.87177   0.95006   0.95007
 Alpha virt. eigenvalues --    0.95810   0.95815   1.00526   1.02084   1.02086
 Alpha virt. eigenvalues --    1.08511   1.08513   1.16605   1.25650   1.32957
 Alpha virt. eigenvalues --    1.32961   1.63290   1.66203   1.66210   1.87322
 Alpha virt. eigenvalues --    1.87325   1.89262   2.07509   2.17433   2.17442
 Alpha virt. eigenvalues --    2.26961   2.26965   2.27482   2.39299   2.39306
 Alpha virt. eigenvalues --    2.54496   2.54613   2.59690   2.59698   2.69925
 Alpha virt. eigenvalues --    2.69929   3.09599   3.31866   3.91272   3.91295
 Alpha virt. eigenvalues --    4.56651   4.56653   4.57540   4.57545   4.69867
 Alpha virt. eigenvalues --    6.79159   7.82070   7.82072   7.87631   9.86337
 Alpha virt. eigenvalues --   24.08444  25.69806  25.69809  26.24012  48.37879
 Alpha virt. eigenvalues --  215.91571 290.98636 290.98639 291.041031020.86371
          Condensed to atoms (all electrons):
               1          2          3          4          5          6
     1  C    5.071588   0.407229   0.407210   0.407260   0.133991  -0.033733
     2  H    0.407229   0.506050  -0.020711  -0.020677  -0.059680  -0.000935
     3  H    0.407210  -0.020711   0.506120  -0.020707  -0.059665  -0.000926
     4  H    0.407260  -0.020677  -0.020707   0.505860  -0.059675  -0.000964
     5  Cl   0.133991  -0.059680  -0.059665  -0.059675  17.291911   0.009733
     6  Br  -0.033733  -0.000935  -0.000926  -0.000964   0.009733  35.942973
 Mulliken charges:
               1
     1  C   -0.393545
     2  H    0.188725
     3  H    0.188679
     4  H    0.188903
     5  Cl  -0.256614
     6  Br  -0.916148
 Sum of Mulliken charges =  -1.00000
 Mulliken charges with hydrogens summed into heavy atoms:
               1
     1  C    0.172763
     5  Cl  -0.256614
     6  Br  -0.916148
 Electronic spatial extent (au):  <R**2>=           1126.1080
 Charge=             -1.0000 electrons
 Dipole moment (field-independent basis, Debye):
    X=              3.4257    Y=              0.0011    Z=              0.0031  Tot=              3.4257
 Quadrupole moment (field-independent basis, Debye-Ang):
   XX=            -71.7854   YY=            -43.1816   ZZ=            -43.1803
   XY=              0.0004   XZ=              0.0018   YZ=             -0.0006
 Traceless Quadrupole moment (field-independent basis, Debye-Ang):
   XX=            -19.0696   YY=              9.5342   ZZ=              9.5355
   XY=              0.0004   XZ=              0.0018   YZ=             -0.0006
 Octapole moment (field-independent basis, Debye-Ang**2):
  XXX=            -78.0727  YYY=              0.2592  ZZZ=             -0.8732  XYY=            -16.2454
  XXY=              0.0004  XXZ=             -0.0006  XZZ=            -16.2487  YZZ=             -0.2610
  YYZ=              0.8634  XYZ=             -0.0002
 Hexadecapole moment (field-independent basis, Debye-Ang**3):
 XXXX=          -1491.4243 YYYY=            -63.7402 ZZZZ=            -63.7425 XXXY=             -0.0165
 XXXZ=             -0.0605 YYYX=              0.2757 YYYZ=              0.0014 ZZZX=             -0.9629
 ZZZY=             -0.0026 XXYY=           -235.4686 XXZZ=           -235.4697 YYZZ=            -21.2435
 XXYZ=             -0.0014 YYXZ=              0.9266 ZZXY=             -0.2837
 N-N= 1.726462467548D+02 E-N=-7.700249134688D+03  KE= 3.070259665037D+03
 Calling FoFJK, ICntrl=      2127 FMM=F ISym2X=0 I1Cent= 0 IOpClX= 0 NMat=1 NMatS=1 NMatT=0.
 -------------------------------------------------------------------
 Center     Atomic                   Forces (Hartrees/Bohr)
 Number     Number              X              Y              Z
 -------------------------------------------------------------------
      1        6           0.002487549    0.000026939   -0.000020090
      2        1           0.000138891    0.000029505   -0.000014030
      3        1           0.000158681   -0.000043235   -0.000014886
      4        1           0.000190615    0.000006331    0.000076931
      5       17           0.006483635   -0.000003566   -0.000008476
      6       35          -0.009459371   -0.000015975   -0.000019449
 -------------------------------------------------------------------
 Cartesian Forces:  Max     0.009459371 RMS     0.002766836

 GradGradGradGradGradGradGradGradGradGradGradGradGradGradGradGradGradGrad
 Berny optimization.
 Search for a local minimum.
 Step number   1 out of a maximum of    2
 All quantities printed in internal units (Hartrees-Bohrs-Radians)
 Second derivative matrix not updated -- first step.
 The second derivative matrix:
                          X1        Y1        Z1        X2        Y2
           X1           0.54172
           Y1           0.00003   0.64574
           Z1           0.00014  -0.00008   0.64577
           X2          -0.10074  -0.07761   0.05555   0.08434
           Y2          -0.06755  -0.24454   0.11635   0.07184   0.23863
           Z2           0.04835   0.11637  -0.16540  -0.05143  -0.12781
           X3          -0.10067   0.08684   0.03943   0.00817  -0.01089
           Y3           0.07558  -0.28584  -0.09256   0.00861  -0.01207
           Z3           0.03432  -0.09257  -0.12411  -0.01259   0.01809
           X4          -0.10099  -0.00931  -0.09532   0.00822   0.00660
           Y4          -0.00811  -0.08437  -0.02371   0.01474   0.01328
           Z4          -0.08301  -0.02372  -0.32526  -0.00411  -0.00344
           X5          -0.23932   0.00006   0.00020   0.00001  -0.00000
           Y5           0.00005  -0.03099   0.00000  -0.01758   0.00469
           Z5           0.00019   0.00000  -0.03100   0.01258  -0.00320
           X6           0.00000   0.00000   0.00000   0.00000   0.00000
           Y6           0.00000   0.00000   0.00000   0.00000   0.00000
           Z6           0.00000   0.00000   0.00000   0.00000   0.00000
                          Z2        X3        Y3        Z3        X4
           Z2           0.15169
           X3          -0.01069   0.08428
           Y3          -0.01209  -0.08038   0.28399
           Z3           0.01830  -0.03650   0.10167   0.10634
           X4           0.01376   0.00820  -0.00381   0.01477   0.08459
           Y4           0.02670  -0.01526   0.00810  -0.02971   0.00862
           Z4          -0.00708  -0.00118   0.00045  -0.00191   0.08829
           X5           0.00000   0.00001   0.00000   0.00000  -0.00002
           Y5          -0.00318   0.01968   0.00581   0.00252  -0.00210
           Z5           0.00250   0.00894   0.00254   0.00137  -0.02150
           X6           0.00000   0.00000   0.00000   0.00000   0.00000
           Y6           0.00000   0.00000   0.00000   0.00000   0.00000
           Z6           0.00000   0.00000   0.00000   0.00000   0.00000
                          Y4        Z4        X5        Y5        Z5
           Y4           0.06270
           Z4           0.02606   0.32731
           X5           0.00000   0.00001   0.23932
           Y5           0.00029   0.00066  -0.00006   0.02020
           Z5           0.00066   0.00693  -0.00021  -0.00000   0.02021
           X6           0.00000   0.00000   0.00000   0.00000   0.00000
           Y6           0.00000   0.00000   0.00000   0.00000   0.00000
           Z6           0.00000   0.00000   0.00000   0.00000   0.00000
                          X6        Y6        Z6
           X6           1.00000
           Y6           0.00000   1.00000
           Z6           0.00000   0.00000   1.00000
 ITU=  0
     Eigenvalues ---    0.02853   0.02853   0.07035   0.07035   0.09079
     Eigenvalues ---    0.13479   0.13480   0.28992   0.47500   0.76271
     Eigenvalues ---    0.93343   0.93363
 Angle between quadratic step and forces=  21.75 degrees.
 Linear search not attempted -- first point.
 B after Tr=    -0.000892   -0.000107   -0.000014
         Rot=    1.000000    0.000000   -0.000008   -0.000006 Ang=   0.00 deg.
 Variable       Old X    -DE/DX   Delta X   Delta X   Delta X     New X
                                 (Linear)    (Quad)   (Total)
    X1        2.52983   0.00249   0.00000   0.00841   0.00752   2.53735
    Y1        0.00077   0.00003   0.00000   0.00016   0.00008   0.00085
    Z1        0.00278  -0.00002   0.00000   0.00013   0.00007   0.00285
    X2        1.90341   0.00014   0.00000  -0.00245  -0.00331   1.90010
    Y2       -1.58023   0.00003   0.00000   0.00243   0.00234  -1.57788
    Z2        1.13493  -0.00001   0.00000  -0.00154  -0.00159   1.13334
    X3        1.90394   0.00016   0.00000  -0.00204  -0.00294   1.90100
    Y3        1.77149  -0.00004   0.00000  -0.00233  -0.00241   1.76907
    Z3        0.80705  -0.00001   0.00000  -0.00107  -0.00111   0.80593
    X4        1.90050   0.00019   0.00000  -0.00174  -0.00266   1.89784
    Y4       -0.18795   0.00001   0.00000   0.00045   0.00037  -0.18759
    Z4       -1.93173   0.00008   0.00000   0.00289   0.00284  -1.92889
    X5        5.98688   0.00648   0.00000   0.01848   0.01758   6.00446
    Y5       -0.00017  -0.00000   0.00000  -0.00012  -0.00015  -0.00032
    Z5       -0.00047  -0.00001   0.00000  -0.00011  -0.00023  -0.00070
    X6       -3.11036  -0.00946   0.00000  -0.01531  -0.01620  -3.12655
    Y6       -0.00009  -0.00002   0.00000  -0.00008  -0.00022  -0.00031
    Z6       -0.00034  -0.00002   0.00000  -0.00002   0.00002  -0.00032
         Item               Value     Threshold  Converged?
 Maximum Force            0.009459     0.000450     NO 
 RMS     Force            0.002767     0.000300     NO 
 Maximum Displacement     0.017585     0.001800     NO 
 RMS     Displacement     0.006138     0.001200     NO 
 Predicted change in Energy=-1.283994D-04
 GradGradGradGradGradGradGradGradGradGradGradGradGradGradGradGradGradGrad

 1\1\GINC-FS\Force\RM062X\6-311G(d,p)\C1H3Br1Cl1(1-)\XINYAN\22-Jan-2019
 \0\\# M062X/6-311G** force nosymm int=ultrafine\\Title\\-1,1\C,1.33873
 ,0.00041,0.00147\H,1.00724,-0.83622,0.60058\H,1.00752,0.93743,0.42707\
 H,1.0057,-0.09946,-1.02223\Cl,3.16812,-0.00009,-0.00025\Br,-1.64593,-0
 .00005,-0.00018\\Version=ES64L-G16RevA.03\HF=-3074.3567147\RMSD=4.780e
 -09\RMSF=2.767e-03\Dipole=1.5740099,0.0004677,0.0013156\Quadrupole=-14
 .1777975,7.0884198,7.0893777,0.0002623,0.0013657,-0.000425\PG=C01 [X(C
 1H3Br1Cl1)]\\@


 TO DETECT ERRORS, THE PROGRAMMER MUST HAVE A CONNIVING MIND,
 ONE THAT DELIGHTS IN UNCOVERING FLAWS WHERE BEAUTY AND
 PERFECTION WERE ONCE THOUGHT TO LIE.

             -- THE PSYCHOLOGY OF COMPUTER PROGRAMMING
                GERALD M. WEINBERG
 Job cpu time:       0 days  0 hours  0 minutes 34.8 seconds.
 Elapsed time:       0 days  0 hours  0 minutes  7.5 seconds.
 File lengths (MBytes):  RWF=     10 Int=      0 D2E=      0 Chk=      2 Scr=      1
 Normal termination of Gaussian 16 at Tue Jan 22 16:56:08 2019.
