 Entering Gaussian System, Link 0=g16
 Input=CH3BrCl-35.gjf
 Output=CH3BrCl-35.log
 Initial command:
 /home/xinyan/g16/l1.exe "/scratch/tmp/Gau-14216.inp" -scrdir="/scratch/tmp/"
 Entering Link 1 = /home/xinyan/g16/l1.exe PID=     14217.
  
 Copyright (c) 1988,1990,1992,1993,1995,1998,2003,2009,2016,
            Gaussian, Inc.  All Rights Reserved.
  
 This is part of the Gaussian(R) 16 program.  It is based on
 the Gaussian(R) 09 system (copyright 2009, Gaussian, Inc.),
 the Gaussian(R) 03 system (copyright 2003, Gaussian, Inc.),
 the Gaussian(R) 98 system (copyright 1998, Gaussian, Inc.),
 the Gaussian(R) 94 system (copyright 1995, Gaussian, Inc.),
 the Gaussian 92(TM) system (copyright 1992, Gaussian, Inc.),
 the Gaussian 90(TM) system (copyright 1990, Gaussian, Inc.),
 the Gaussian 88(TM) system (copyright 1988, Gaussian, Inc.),
 the Gaussian 86(TM) system (copyright 1986, Carnegie Mellon
 University), and the Gaussian 82(TM) system (copyright 1983,
 Carnegie Mellon University). Gaussian is a federally registered
 trademark of Gaussian, Inc.
  
 This software contains proprietary and confidential information,
 including trade secrets, belonging to Gaussian, Inc.
  
 This software is provided under written license and may be
 used, copied, transmitted, or stored only in accord with that
 written license.
  
 The following legend is applicable only to US Government
 contracts under FAR:
  
                    RESTRICTED RIGHTS LEGEND
  
 Use, reproduction and disclosure by the US Government is
 subject to restrictions as set forth in subparagraphs (a)
 and (c) of the Commercial Computer Software - Restricted
 Rights clause in FAR 52.227-19.
  
 Gaussian, Inc.
 340 Quinnipiac St., Bldg. 40, Wallingford CT 06492
  
  
 ---------------------------------------------------------------
 Warning -- This program may not be used in any manner that
 competes with the business of Gaussian, Inc. or will provide
 assistance to any competitor of Gaussian, Inc.  The licensee
 of this program is prohibited from giving any competitor of
 Gaussian, Inc. access to this program.  By using this program,
 the user acknowledges that Gaussian, Inc. is engaged in the
 business of creating and licensing software in the field of
 computational chemistry and represents and warrants to the
 licensee that it is not a competitor of Gaussian, Inc. and that
 it will not use this program in any manner prohibited above.
 ---------------------------------------------------------------
  

 Cite this work as:
 Gaussian 16, Revision A.03,
 M. J. Frisch, G. W. Trucks, H. B. Schlegel, G. E. Scuseria, 
 M. A. Robb, J. R. Cheeseman, G. Scalmani, V. Barone, 
 G. A. Petersson, H. Nakatsuji, X. Li, M. Caricato, A. V. Marenich, 
 J. Bloino, B. G. Janesko, R. Gomperts, B. Mennucci, H. P. Hratchian, 
 J. V. Ortiz, A. F. Izmaylov, J. L. Sonnenberg, D. Williams-Young, 
 F. Ding, F. Lipparini, F. Egidi, J. Goings, B. Peng, A. Petrone, 
 T. Henderson, D. Ranasinghe, V. G. Zakrzewski, J. Gao, N. Rega, 
 G. Zheng, W. Liang, M. Hada, M. Ehara, K. Toyota, R. Fukuda, 
 J. Hasegawa, M. Ishida, T. Nakajima, Y. Honda, O. Kitao, H. Nakai, 
 T. Vreven, K. Throssell, J. A. Montgomery, Jr., J. E. Peralta, 
 F. Ogliaro, M. J. Bearpark, J. J. Heyd, E. N. Brothers, K. N. Kudin, 
 V. N. Staroverov, T. A. Keith, R. Kobayashi, J. Normand, 
 K. Raghavachari, A. P. Rendell, J. C. Burant, S. S. Iyengar, 
 J. Tomasi, M. Cossi, J. M. Millam, M. Klene, C. Adamo, R. Cammi, 
 J. W. Ochterski, R. L. Martin, K. Morokuma, O. Farkas, 
 J. B. Foresman, and D. J. Fox, Gaussian, Inc., Wallingford CT, 2016.
 
 ******************************************
 Gaussian 16:  ES64L-G16RevA.03 25-Dec-2016
                22-Jan-2019 
 ******************************************
 %nproc=5
 Will use up to    5 processors via shared memory.
 -------------------------------------------
 # M062X/6-311G** force nosymm int=ultrafine
 -------------------------------------------
 1/10=7,30=1,38=1/1,3;
 2/12=2,15=1,17=6,18=5,40=1/2;
 3/5=4,6=6,7=101,11=2,25=1,30=1,71=1,74=-55,75=-5/1,2,3;
 4//1;
 5/5=2,38=5/2;
 6/7=2,8=2,9=2,10=2,28=1/1;
 7/29=1,30=1/1,2,3,16;
 1/10=7,30=1/3;
 99//99;
 -----
 Title
 -----
 Symbolic Z-matrix:
 Charge = -1 Multiplicity = 1
 C                     1.03236   0.00015   0.00119 
 H                     0.88076  -0.8651    0.62078 
 H                     0.88075   0.96929   0.44086 
 H                     0.88041  -0.10365  -1.05782 
 Cl                    3.17009  -0.00004  -0.00023 
 Br                   -1.59539  -0.00001  -0.00013 
 

 GradGradGradGradGradGradGradGradGradGradGradGradGradGradGradGradGradGrad
 Berny optimization.
 Initialization pass.
 Trust Radius=3.00D-01 FncErr=1.00D-07 GrdErr=1.00D-07 EigMax=2.50D+02 EigMin=1.00D-04
 Number of steps in this run=      2 maximum allowed number of steps=      2.
 GradGradGradGradGradGradGradGradGradGradGradGradGradGradGradGradGradGrad

                          Input orientation:                          
 ---------------------------------------------------------------------
 Center     Atomic      Atomic             Coordinates (Angstroms)
 Number     Number       Type             X           Y           Z
 ---------------------------------------------------------------------
      1          6           0        1.032360    0.000150    0.001190
      2          1           0        0.880760   -0.865100    0.620780
      3          1           0        0.880750    0.969290    0.440860
      4          1           0        0.880410   -0.103650   -1.057820
      5         17           0        3.170090   -0.000040   -0.000230
      6         35           0       -1.595390   -0.000010   -0.000130
 ---------------------------------------------------------------------
                    Distance matrix (angstroms):
                    1          2          3          4          5
     1  C    0.000000
     2  H    1.074957   0.000000
     3  H    1.074955   1.843192   0.000000
     4  H    1.074879   1.843232   1.843161   0.000000
     5  Cl   2.137730   2.524879   2.524923   2.524256   0.000000
     6  Br   2.627750   2.695409   2.695419   2.694260   4.765480
                    6
     6  Br   0.000000
 Symmetry turned off by external request.
 This structure is nearly, but not quite of a higher symmetry.
 Consider Symm=Loose if the higher symmetry is desired.
 Stoichiometry    CH3BrCl(1-)
 Framework group  C1[X(CH3BrCl)]
 Deg. of freedom    12
 Full point group                 C1      NOp   1
 Rotational constants (GHZ):         147.5999641           0.8879809           0.8879806
 Standard basis: 6-311G(d,p) (5D, 7F)
   106 basis functions,   195 primitive gaussians,   111 cartesian basis functions
    31 alpha electrons       31 beta electrons
       nuclear repulsion energy       174.6394395844 Hartrees.
 NAtoms=    6 NActive=    6 NUniq=    6 SFac= 1.00D+00 NAtFMM=   60 NAOKFM=F Big=F
 Integral buffers will be    131072 words long.
 Raffenetti 2 integral format.
 Two-electron integral symmetry is turned off.
 One-electron integrals computed using PRISM.
 NBasis=   106 RedAO= T EigKep=  1.10D-02  NBF=   106
 NBsUse=   106 1.00D-06 EigRej= -1.00D+00 NBFU=   106
 ExpMin= 1.03D-01 ExpMax= 4.40D+05 ExpMxC= 1.51D+04 IAcc=3 IRadAn=         5 AccDes= 0.00D+00
 Harris functional with IExCor= 1009 and IRadAn=       5 diagonalized for initial guess.
 HarFok:  IExCor= 1009 AccDes= 0.00D+00 IRadAn=         5 IDoV= 1 UseB2=F ITyADJ=14
 ICtDFT=  3500011 ScaDFX=  1.000000  1.000000  1.000000  1.000000
 FoFCou: FMM=F IPFlag=           0 FMFlag=      100000 FMFlg1=           0
         NFxFlg=           0 DoJE=T BraDBF=F KetDBF=T FulRan=T
         wScrn=  0.000000 ICntrl=       500 IOpCl=  0 I1Cent=   200000004 NGrid=           0
         NMat0=    1 NMatS0=      1 NMatT0=    0 NMatD0=    1 NMtDS0=    0 NMtDT0=    0
 Symmetry not used in FoFCou.
 Keep R1 ints in memory in canonical form, NReq=20756204.
 Requested convergence on RMS density matrix=1.00D-08 within 128 cycles.
 Requested convergence on MAX density matrix=1.00D-06.
 Requested convergence on             energy=1.00D-06.
 No special actions if energy rises.
 Integral accuracy reduced to 1.0D-05 until final iterations.
 Initial convergence to 1.0D-05 achieved.  Increase integral accuracy.
 SCF Done:  E(RM062X) =  -3074.34226969     A.U. after   14 cycles
            NFock= 14  Conv=0.42D-08     -V/T= 2.0014

 **********************************************************************

            Population analysis using the SCF density.

 **********************************************************************

 Alpha  occ. eigenvalues -- -485.07319-102.47734 -63.06558 -56.89168 -56.89119
 Alpha  occ. eigenvalues --  -56.89119 -10.45796  -9.61831  -8.75177  -7.34183
 Alpha  occ. eigenvalues --   -7.33770  -7.33770  -6.57446  -6.57234  -6.57233
 Alpha  occ. eigenvalues --   -2.60620  -2.60553  -2.60553  -2.60371  -2.60371
 Alpha  occ. eigenvalues --   -0.73243  -0.63832  -0.57873  -0.36936  -0.36934
 Alpha  occ. eigenvalues --   -0.25825  -0.19935  -0.19935  -0.12113  -0.12112
 Alpha  occ. eigenvalues --   -0.11687
 Alpha virt. eigenvalues --    0.16276   0.22709   0.28805   0.28810   0.44680
 Alpha virt. eigenvalues --    0.46946   0.46947   0.49463   0.49464   0.49838
 Alpha virt. eigenvalues --    0.54651   0.54655   0.66244   0.68892   0.74899
 Alpha virt. eigenvalues --    0.76797   0.76802   0.91772   0.92142   0.92144
 Alpha virt. eigenvalues --    0.92327   0.92330   0.95197   1.10667   1.10672
 Alpha virt. eigenvalues --    1.13245   1.13246   1.22653   1.27148   1.29619
 Alpha virt. eigenvalues --    1.29625   1.59229   1.63684   1.63691   1.72651
 Alpha virt. eigenvalues --    1.93879   1.93881   2.00005   2.12675   2.12676
 Alpha virt. eigenvalues --    2.21867   2.21869   2.28187   2.36143   2.36144
 Alpha virt. eigenvalues --    2.47904   2.60546   2.60547   2.62633   2.77159
 Alpha virt. eigenvalues --    2.77160   3.06093   3.14783   3.89318   3.89329
 Alpha virt. eigenvalues --    4.53517   4.53518   4.54704   4.54705   4.71451
 Alpha virt. eigenvalues --    6.77498   7.79160   7.79163   7.85959   9.84557
 Alpha virt. eigenvalues --   24.08419  25.70680  25.70682  26.12179  48.35805
 Alpha virt. eigenvalues --  215.89428 290.95420 290.95421 291.027161020.84668
          Condensed to atoms (all electrons):
               1          2          3          4          5          6
     1  C    4.996622   0.412925   0.412918   0.413024   0.101231   0.007863
     2  H    0.412925   0.496219  -0.016836  -0.016798  -0.051161  -0.025459
     3  H    0.412918  -0.016836   0.496231  -0.016806  -0.051155  -0.025457
     4  H    0.413024  -0.016798  -0.016806   0.496163  -0.051267  -0.025557
     5  Cl   0.101231  -0.051161  -0.051155  -0.051267  17.515956   0.016512
     6  Br   0.007863  -0.025459  -0.025457  -0.025557   0.016512  35.830855
 Mulliken charges:
               1
     1  C   -0.344583
     2  H    0.201110
     3  H    0.201104
     4  H    0.201242
     5  Cl  -0.480116
     6  Br  -0.778758
 Sum of Mulliken charges =  -1.00000
 Mulliken charges with hydrogens summed into heavy atoms:
               1
     1  C    0.258873
     5  Cl  -0.480116
     6  Br  -0.778758
 Electronic spatial extent (au):  <R**2>=           1094.6988
 Charge=             -1.0000 electrons
 Dipole moment (field-independent basis, Debye):
    X=             -0.5463    Y=              0.0005    Z=              0.0027  Tot=              0.5463
 Quadrupole moment (field-independent basis, Debye-Ang):
   XX=            -79.4516   YY=            -43.1368   ZZ=            -43.1360
   XY=              0.0002   XZ=              0.0020   YZ=             -0.0003
 Traceless Quadrupole moment (field-independent basis, Debye-Ang):
   XX=            -24.2101   YY=             12.1046   ZZ=             12.1055
   XY=              0.0002   XZ=              0.0020   YZ=             -0.0003
 Octapole moment (field-independent basis, Debye-Ang**2):
  XXX=           -123.9289  YYY=              0.3198  ZZZ=             -1.0642  XYY=            -18.7278
  XXY=              0.0003  XXZ=             -0.0018  XZZ=            -18.7289  YZZ=             -0.3201
  YYZ=              1.0587  XYZ=              0.0000
 Hexadecapole moment (field-independent basis, Debye-Ang**3):
 XXXX=          -1582.0608 YYYY=            -63.7703 ZZZZ=            -63.7720 XXXY=             -0.0011
 XXXZ=             -0.0205 YYYX=              0.2948 YYYZ=              0.0005 ZZZX=             -0.9785
 ZZZY=             -0.0018 XXYY=           -234.8626 XXZZ=           -234.8627 YYZZ=            -21.2538
 XXYZ=             -0.0011 YYXZ=              0.9709 ZZXY=             -0.2934
 N-N= 1.746394395844D+02 E-N=-7.703795313695D+03  KE= 3.070162193200D+03
 Calling FoFJK, ICntrl=      2127 FMM=F ISym2X=0 I1Cent= 0 IOpClX= 0 NMat=1 NMatS=1 NMatT=0.
 -------------------------------------------------------------------
 Center     Atomic                   Forces (Hartrees/Bohr)
 Number     Number              X              Y              Z
 -------------------------------------------------------------------
      1        6           0.023705049   -0.000000045   -0.000008713
      2        1           0.000287103    0.000351355   -0.000249989
      3        1           0.000290365   -0.000395863   -0.000180302
      4        1           0.000279526    0.000042175    0.000423888
      5       17          -0.012083815   -0.000001016    0.000023471
      6       35          -0.012478227    0.000003393   -0.000008355
 -------------------------------------------------------------------
 Cartesian Forces:  Max     0.023705049 RMS     0.006930032

 GradGradGradGradGradGradGradGradGradGradGradGradGradGradGradGradGradGrad
 Berny optimization.
 Search for a local minimum.
 Step number   1 out of a maximum of    2
 All quantities printed in internal units (Hartrees-Bohrs-Radians)
 Second derivative matrix not updated -- first step.
 The second derivative matrix:
                          X1        Y1        Z1        X2        Y2
           X1           0.32567
           Y1          -0.00000   0.72098
           Z1           0.00004  -0.00001   0.72107
           X2          -0.07233  -0.03365   0.02410   0.05573
           Y2          -0.03402  -0.27466   0.11947   0.03594   0.26269
           Z2           0.02437   0.11947  -0.19336  -0.02575  -0.13562
           X3          -0.07233   0.03769   0.01711   0.00829  -0.00610
           Y3           0.03811  -0.31713  -0.09496   0.00472  -0.01003
           Z3           0.01729  -0.09495  -0.15089  -0.00755   0.02000
           X4          -0.07236  -0.00405  -0.04130   0.00830   0.00418
           Y4          -0.00409  -0.11023  -0.02451   0.00869   0.02016
           Z4          -0.04176  -0.02451  -0.35787  -0.00204  -0.00258
           X5          -0.10865   0.00001   0.00006   0.00001  -0.00000
           Y5           0.00001  -0.01895   0.00000  -0.01570   0.00184
           Z5           0.00006   0.00000  -0.01894   0.01124  -0.00128
           X6           0.00000   0.00000   0.00000   0.00000   0.00000
           Y6           0.00000   0.00000   0.00000   0.00000   0.00000
           Z6           0.00000   0.00000   0.00000   0.00000   0.00000
                          Z2        X3        Y3        Z3        X4
           Z2           0.17041
           X3          -0.00649   0.05573
           Y3          -0.01285  -0.04026   0.31091
           Z3           0.02609  -0.01828   0.10780   0.12220
           X4           0.00787   0.00830  -0.00257   0.00853   0.05577
           Y4           0.03027  -0.00892   0.01396  -0.03385   0.00432
           Z4          -0.00410  -0.00032  -0.00100   0.00209   0.04412
           X5           0.00000   0.00001   0.00000   0.00000  -0.00001
           Y5          -0.00127   0.01759   0.00230   0.00101  -0.00188
           Z5           0.00096   0.00798   0.00102   0.00051  -0.01922
           X6           0.00000   0.00000   0.00000   0.00000   0.00000
           Y6           0.00000   0.00000   0.00000   0.00000   0.00000
           Z6           0.00000   0.00000   0.00000   0.00000   0.00000
                          Y4        Z4        X5        Y5        Z5
           Y4           0.07603
           Z4           0.02782   0.35714
           X5           0.00000   0.00000   0.10865
           Y5           0.00008   0.00026  -0.00001   0.01473
           Z5           0.00026   0.00273  -0.00006  -0.00000   0.01473
           X6           0.00000   0.00000   0.00000   0.00000   0.00000
           Y6           0.00000   0.00000   0.00000   0.00000   0.00000
           Z6           0.00000   0.00000   0.00000   0.00000   0.00000
                          X6        Y6        Z6
           X6           1.00000
           Y6           0.00000   1.00000
           Z6           0.00000   0.00000   1.00000
 ITU=  0
     Eigenvalues ---    0.03577   0.03578   0.05887   0.05888   0.06255
     Eigenvalues ---    0.15783   0.15785   0.30564   0.43052   0.48188
     Eigenvalues ---    1.01523   1.01539
 Angle between quadratic step and forces=  48.84 degrees.
 Linear search not attempted -- first point.
 B after Tr=    -0.034147   -0.000004    0.000014
         Rot=    1.000000    0.000000    0.000005   -0.000001 Ang=   0.00 deg.
 Variable       Old X    -DE/DX   Delta X   Delta X   Delta X     New X
                                 (Linear)    (Quad)   (Total)
    X1        1.95088   0.02371   0.00000   0.08665   0.05250   2.00338
    Y1        0.00028  -0.00000   0.00000  -0.00001  -0.00001   0.00028
    Z1        0.00225  -0.00001   0.00000  -0.00008  -0.00004   0.00221
    X2        1.66440   0.00029   0.00000   0.07086   0.03670   1.70110
    Y2       -1.63480   0.00035   0.00000   0.00247   0.00247  -1.63233
    Z2        1.17310  -0.00025   0.00000  -0.00182  -0.00179   1.17131
    X3        1.66438   0.00029   0.00000   0.07091   0.03675   1.70113
    Y3        1.83169  -0.00040   0.00000  -0.00278  -0.00278   1.82892
    Z3        0.83310  -0.00018   0.00000  -0.00132  -0.00129   0.83181
    X4        1.66373   0.00028   0.00000   0.07069   0.03657   1.70030
    Y4       -0.19587   0.00004   0.00000   0.00030   0.00030  -0.19557
    Z4       -1.99899   0.00042   0.00000   0.00295   0.00298  -1.99601
    X5        5.99060  -0.01208   0.00000  -0.07404  -0.10818   5.88242
    Y5       -0.00008  -0.00000   0.00000   0.00001   0.00002  -0.00005
    Z5       -0.00043   0.00002   0.00000   0.00009   0.00016  -0.00027
    X6       -3.01485  -0.01248   0.00000  -0.02019  -0.05434  -3.06919
    Y6       -0.00002   0.00000   0.00000  -0.00000  -0.00002  -0.00004
    Z6       -0.00025  -0.00001   0.00000   0.00000  -0.00001  -0.00026
         Item               Value     Threshold  Converged?
 Maximum Force            0.023705     0.000450     NO 
 RMS     Force            0.006930     0.000300     NO 
 Maximum Displacement     0.108185     0.001800     NO 
 RMS     Displacement     0.034541     0.001200     NO 
 Predicted change in Energy=-3.601680D-04
 GradGradGradGradGradGradGradGradGradGradGradGradGradGradGradGradGradGrad

 1\1\GINC-FS\Force\RM062X\6-311G(d,p)\C1H3Br1Cl1(1-)\XINYAN\22-Jan-2019
 \0\\# M062X/6-311G** force nosymm int=ultrafine\\Title\\-1,1\C,1.03236
 ,0.00015,0.00119\H,0.88076,-0.8651,0.62078\H,0.88075,0.96929,0.44086\H
 ,0.88041,-0.10365,-1.05782\Cl,3.17009,-0.00004,-0.00023\Br,-1.59539,-0
 .00001,-0.00013\\Version=ES64L-G16RevA.03\HF=-3074.3422697\RMSD=4.156e
 -09\RMSF=6.930e-03\Dipole=-0.0015322,0.0002024,0.0011518\Quadrupole=-1
 7.9996486,8.9995031,9.0001454,0.0001227,0.0014797,-0.0002109\PG=C01 [X
 (C1H3Br1Cl1)]\\@


 LAWS OF PROGRAMMING DEFINITION:  A WORKING PROGRAM
                                  IS ONE THAT HAS
                                  ONLY UNOBSERVED
                                  BUGS.
 Job cpu time:       0 days  0 hours  0 minutes 38.0 seconds.
 Elapsed time:       0 days  0 hours  0 minutes  8.3 seconds.
 File lengths (MBytes):  RWF=     10 Int=      0 D2E=      0 Chk=      2 Scr=      1
 Normal termination of Gaussian 16 at Tue Jan 22 16:54:12 2019.
