 Entering Gaussian System, Link 0=g16
 Input=CH3BrCl-13.gjf
 Output=CH3BrCl-13.log
 Initial command:
 /home/xinyan/g16/l1.exe "/scratch/tmp/Gau-12611.inp" -scrdir="/scratch/tmp/"
 Entering Link 1 = /home/xinyan/g16/l1.exe PID=     12612.
  
 Copyright (c) 1988,1990,1992,1993,1995,1998,2003,2009,2016,
            Gaussian, Inc.  All Rights Reserved.
  
 This is part of the Gaussian(R) 16 program.  It is based on
 the Gaussian(R) 09 system (copyright 2009, Gaussian, Inc.),
 the Gaussian(R) 03 system (copyright 2003, Gaussian, Inc.),
 the Gaussian(R) 98 system (copyright 1998, Gaussian, Inc.),
 the Gaussian(R) 94 system (copyright 1995, Gaussian, Inc.),
 the Gaussian 92(TM) system (copyright 1992, Gaussian, Inc.),
 the Gaussian 90(TM) system (copyright 1990, Gaussian, Inc.),
 the Gaussian 88(TM) system (copyright 1988, Gaussian, Inc.),
 the Gaussian 86(TM) system (copyright 1986, Carnegie Mellon
 University), and the Gaussian 82(TM) system (copyright 1983,
 Carnegie Mellon University). Gaussian is a federally registered
 trademark of Gaussian, Inc.
  
 This software contains proprietary and confidential information,
 including trade secrets, belonging to Gaussian, Inc.
  
 This software is provided under written license and may be
 used, copied, transmitted, or stored only in accord with that
 written license.
  
 The following legend is applicable only to US Government
 contracts under FAR:
  
                    RESTRICTED RIGHTS LEGEND
  
 Use, reproduction and disclosure by the US Government is
 subject to restrictions as set forth in subparagraphs (a)
 and (c) of the Commercial Computer Software - Restricted
 Rights clause in FAR 52.227-19.
  
 Gaussian, Inc.
 340 Quinnipiac St., Bldg. 40, Wallingford CT 06492
  
  
 ---------------------------------------------------------------
 Warning -- This program may not be used in any manner that
 competes with the business of Gaussian, Inc. or will provide
 assistance to any competitor of Gaussian, Inc.  The licensee
 of this program is prohibited from giving any competitor of
 Gaussian, Inc. access to this program.  By using this program,
 the user acknowledges that Gaussian, Inc. is engaged in the
 business of creating and licensing software in the field of
 computational chemistry and represents and warrants to the
 licensee that it is not a competitor of Gaussian, Inc. and that
 it will not use this program in any manner prohibited above.
 ---------------------------------------------------------------
  

 Cite this work as:
 Gaussian 16, Revision A.03,
 M. J. Frisch, G. W. Trucks, H. B. Schlegel, G. E. Scuseria, 
 M. A. Robb, J. R. Cheeseman, G. Scalmani, V. Barone, 
 G. A. Petersson, H. Nakatsuji, X. Li, M. Caricato, A. V. Marenich, 
 J. Bloino, B. G. Janesko, R. Gomperts, B. Mennucci, H. P. Hratchian, 
 J. V. Ortiz, A. F. Izmaylov, J. L. Sonnenberg, D. Williams-Young, 
 F. Ding, F. Lipparini, F. Egidi, J. Goings, B. Peng, A. Petrone, 
 T. Henderson, D. Ranasinghe, V. G. Zakrzewski, J. Gao, N. Rega, 
 G. Zheng, W. Liang, M. Hada, M. Ehara, K. Toyota, R. Fukuda, 
 J. Hasegawa, M. Ishida, T. Nakajima, Y. Honda, O. Kitao, H. Nakai, 
 T. Vreven, K. Throssell, J. A. Montgomery, Jr., J. E. Peralta, 
 F. Ogliaro, M. J. Bearpark, J. J. Heyd, E. N. Brothers, K. N. Kudin, 
 V. N. Staroverov, T. A. Keith, R. Kobayashi, J. Normand, 
 K. Raghavachari, A. P. Rendell, J. C. Burant, S. S. Iyengar, 
 J. Tomasi, M. Cossi, J. M. Millam, M. Klene, C. Adamo, R. Cammi, 
 J. W. Ochterski, R. L. Martin, K. Morokuma, O. Farkas, 
 J. B. Foresman, and D. J. Fox, Gaussian, Inc., Wallingford CT, 2016.
 
 ******************************************
 Gaussian 16:  ES64L-G16RevA.03 25-Dec-2016
                22-Jan-2019 
 ******************************************
 %nproc=5
 Will use up to    5 processors via shared memory.
 -------------------------------------------
 # M062X/6-311G** force nosymm int=ultrafine
 -------------------------------------------
 1/10=7,30=1,38=1/1,3;
 2/12=2,15=1,17=6,18=5,40=1/2;
 3/5=4,6=6,7=101,11=2,25=1,30=1,71=1,74=-55,75=-5/1,2,3;
 4//1;
 5/5=2,38=5/2;
 6/7=2,8=2,9=2,10=2,28=1/1;
 7/29=1,30=1/1,2,3,16;
 1/10=7,30=1/3;
 99//99;
 -----
 Title
 -----
 Symbolic Z-matrix:
 Charge = -1 Multiplicity = 1
 C                     0.54449   0.00039   0.00118 
 H                     0.80786  -0.84934   0.61008 
 H                     0.80772   0.95251   0.43292 
 H                     0.80896  -0.10176  -1.0389 
 Cl                    3.25784  -0.0001   -0.00029 
 Br                   -1.55731  -0.00003  -0.0001 
 

 GradGradGradGradGradGradGradGradGradGradGradGradGradGradGradGradGradGrad
 Berny optimization.
 Initialization pass.
 Trust Radius=3.00D-01 FncErr=1.00D-07 GrdErr=1.00D-07 EigMax=2.50D+02 EigMin=1.00D-04
 Number of steps in this run=      2 maximum allowed number of steps=      2.
 GradGradGradGradGradGradGradGradGradGradGradGradGradGradGradGradGradGrad

                          Input orientation:                          
 ---------------------------------------------------------------------
 Center     Atomic      Atomic             Coordinates (Angstroms)
 Number     Number       Type             X           Y           Z
 ---------------------------------------------------------------------
      1          6           0        0.544490    0.000390    0.001180
      2          1           0        0.807860   -0.849340    0.610080
      3          1           0        0.807720    0.952510    0.432920
      4          1           0        0.808960   -0.101760   -1.038900
      5         17           0        3.257840   -0.000100   -0.000290
      6         35           0       -1.557310   -0.000030   -0.000100
 ---------------------------------------------------------------------
                    Distance matrix (angstroms):
                    1          2          3          4          5
     1  C    0.000000
     2  H    1.078037   0.000000
     3  H    1.078064   1.810538   0.000000
     4  H    1.078028   1.810528   1.810453   0.000000
     5  Cl   2.713350   2.663862   2.664249   2.661965   0.000000
     6  Br   2.101800   2.586054   2.586157   2.586250   4.815150
                    6
     6  Br   0.000000
 Symmetry turned off by external request.
 This structure is nearly, but not quite of a higher symmetry.
 Consider Symm=Loose if the higher symmetry is desired.
 Stoichiometry    CH3BrCl(1-)
 Framework group  C1[X(CH3BrCl)]
 Deg. of freedom    12
 Full point group                 C1      NOp   1
 Rotational constants (GHZ):         152.9777218           0.8870645           0.8870642
 Standard basis: 6-311G(d,p) (5D, 7F)
   106 basis functions,   195 primitive gaussians,   111 cartesian basis functions
    31 alpha electrons       31 beta electrons
       nuclear repulsion energy       179.4853032420 Hartrees.
 NAtoms=    6 NActive=    6 NUniq=    6 SFac= 1.00D+00 NAtFMM=   60 NAOKFM=F Big=F
 Integral buffers will be    131072 words long.
 Raffenetti 2 integral format.
 Two-electron integral symmetry is turned off.
 One-electron integrals computed using PRISM.
 NBasis=   106 RedAO= T EigKep=  1.05D-02  NBF=   106
 NBsUse=   106 1.00D-06 EigRej= -1.00D+00 NBFU=   106
 ExpMin= 1.03D-01 ExpMax= 4.40D+05 ExpMxC= 1.51D+04 IAcc=3 IRadAn=         5 AccDes= 0.00D+00
 Harris functional with IExCor= 1009 and IRadAn=       5 diagonalized for initial guess.
 HarFok:  IExCor= 1009 AccDes= 0.00D+00 IRadAn=         5 IDoV= 1 UseB2=F ITyADJ=14
 ICtDFT=  3500011 ScaDFX=  1.000000  1.000000  1.000000  1.000000
 FoFCou: FMM=F IPFlag=           0 FMFlag=      100000 FMFlg1=           0
         NFxFlg=           0 DoJE=T BraDBF=F KetDBF=T FulRan=T
         wScrn=  0.000000 ICntrl=       500 IOpCl=  0 I1Cent=   200000004 NGrid=           0
         NMat0=    1 NMatS0=      1 NMatT0=    0 NMatD0=    1 NMtDS0=    0 NMtDT0=    0
 Symmetry not used in FoFCou.
 Keep R1 ints in memory in canonical form, NReq=20756204.
 Requested convergence on RMS density matrix=1.00D-08 within 128 cycles.
 Requested convergence on MAX density matrix=1.00D-06.
 Requested convergence on             energy=1.00D-06.
 No special actions if energy rises.
 Integral accuracy reduced to 1.0D-05 until final iterations.
 Initial convergence to 1.0D-05 achieved.  Increase integral accuracy.
 SCF Done:  E(RM062X) =  -3074.34756676     A.U. after   14 cycles
            NFock= 14  Conv=0.39D-08     -V/T= 2.0014

 **********************************************************************

            Population analysis using the SCF density.

 **********************************************************************

 Alpha  occ. eigenvalues -- -485.17170-102.37354 -63.16382 -56.99088 -56.98892
 Alpha  occ. eigenvalues --  -56.98892 -10.44658  -9.51555  -8.85044  -7.23687
 Alpha  occ. eigenvalues --   -7.23634  -7.23633  -6.67672  -6.66902  -6.66901
 Alpha  occ. eigenvalues --   -2.70822  -2.70565  -2.70565  -2.69883  -2.69882
 Alpha  occ. eigenvalues --   -0.72798  -0.62551  -0.59292  -0.36132  -0.36130
 Alpha  occ. eigenvalues --   -0.27322  -0.19685  -0.19684  -0.11590  -0.11589
 Alpha  occ. eigenvalues --   -0.11244
 Alpha virt. eigenvalues --    0.16507   0.23559   0.29055   0.29062   0.44392
 Alpha virt. eigenvalues --    0.46105   0.46108   0.48019   0.48021   0.52960
 Alpha virt. eigenvalues --    0.56046   0.56053   0.59288   0.68786   0.76546
 Alpha virt. eigenvalues --    0.76552   0.78557   0.83358   0.83359   0.86537
 Alpha virt. eigenvalues --    0.86537   0.90292   1.01451   1.11267   1.22224
 Alpha virt. eigenvalues --    1.22225   1.22508   1.22508   1.28930   1.28934
 Alpha virt. eigenvalues --    1.36641   1.61542   1.65389   1.65396   1.78853
 Alpha virt. eigenvalues --    1.87314   1.87316   2.05731   2.10093   2.10096
 Alpha virt. eigenvalues --    2.27544   2.27547   2.27575   2.42964   2.42967
 Alpha virt. eigenvalues --    2.51016   2.59150   2.61124   2.61129   2.72723
 Alpha virt. eigenvalues --    2.72727   3.10396   3.14620   3.89253   3.89261
 Alpha virt. eigenvalues --    4.44294   4.44297   4.52255   4.52255   4.78622
 Alpha virt. eigenvalues --    6.70051   7.71310   7.71311   7.82061   9.89457
 Alpha virt. eigenvalues --   24.09113  25.78452  25.78459  26.01533  48.27505
 Alpha virt. eigenvalues --  215.93566 290.86160 290.86160 290.990191020.76668
          Condensed to atoms (all electrons):
               1          2          3          4          5          6
     1  C    5.006869   0.412658   0.412634   0.412707  -0.006236   0.132728
     2  H    0.412658   0.490131  -0.016691  -0.016665  -0.018378  -0.048441
     3  H    0.412634  -0.016691   0.490178  -0.016680  -0.018361  -0.048423
     4  H    0.412707  -0.016665  -0.016680   0.489987  -0.018447  -0.048439
     5  Cl  -0.006236  -0.018378  -0.018361  -0.018447  17.930477   0.012654
     6  Br   0.132728  -0.048441  -0.048423  -0.048439   0.012654  35.339115
 Mulliken charges:
               1
     1  C   -0.371360
     2  H    0.197385
     3  H    0.197341
     4  H    0.197536
     5  Cl  -0.881709
     6  Br  -0.339194
 Sum of Mulliken charges =  -1.00000
 Mulliken charges with hydrogens summed into heavy atoms:
               1
     1  C    0.220903
     5  Cl  -0.881709
     6  Br  -0.339194
 Electronic spatial extent (au):  <R**2>=           1106.4207
 Charge=             -1.0000 electrons
 Dipole moment (field-independent basis, Debye):
    X=             -9.8775    Y=              0.0010    Z=              0.0028  Tot=              9.8775
 Quadrupole moment (field-independent basis, Debye-Ang):
   XX=            -94.0266   YY=            -43.0489   ZZ=            -43.0483
   XY=              0.0018   XZ=              0.0046   YZ=             -0.0003
 Traceless Quadrupole moment (field-independent basis, Debye-Ang):
   XX=            -33.9853   YY=             16.9924   ZZ=             16.9930
   XY=              0.0018   XZ=              0.0046   YZ=             -0.0003
 Octapole moment (field-independent basis, Debye-Ang**2):
  XXX=           -232.0039  YYY=              0.2947  ZZZ=             -0.9803  XYY=            -25.4370
  XXY=              0.0022  XXZ=              0.0052  XZZ=            -25.4354  YZZ=             -0.2961
  YYZ=              0.9760  XYZ=             -0.0001
 Hexadecapole moment (field-independent basis, Debye-Ang**3):
 XXXX=          -1899.9020 YYYY=            -63.2248 ZZZZ=            -63.2278 XXXY=              0.0229
 XXXZ=              0.0651 YYYX=              0.2520 YYYZ=              0.0012 ZZZX=             -0.7779
 ZZZY=             -0.0022 XXYY=           -247.1088 XXZZ=           -247.1042 YYZZ=            -21.0723
 XXYZ=             -0.0011 YYXZ=              0.8111 ZZXY=             -0.2401
 N-N= 1.794853032420D+02 E-N=-7.711863312789D+03  KE= 3.070191551398D+03
 Calling FoFJK, ICntrl=      2127 FMM=F ISym2X=0 I1Cent= 0 IOpClX= 0 NMat=1 NMatS=1 NMatT=0.
 -------------------------------------------------------------------
 Center     Atomic                   Forces (Hartrees/Bohr)
 Number     Number              X              Y              Z
 -------------------------------------------------------------------
      1        6          -0.017239614    0.000007239   -0.000006100
      2        1          -0.000637382    0.000152566   -0.000103828
      3        1          -0.000640057   -0.000168237   -0.000076391
      4        1          -0.000631286    0.000017137    0.000195239
      5       17           0.010934623   -0.000007188   -0.000013338
      6       35           0.008213716   -0.000001517    0.000004418
 -------------------------------------------------------------------
 Cartesian Forces:  Max     0.017239614 RMS     0.005193783

 GradGradGradGradGradGradGradGradGradGradGradGradGradGradGradGradGradGrad
 Berny optimization.
 Search for a local minimum.
 Step number   1 out of a maximum of    2
 All quantities printed in internal units (Hartrees-Bohrs-Radians)
 Second derivative matrix not updated -- first step.
 The second derivative matrix:
                          X1        Y1        Z1        X2        Y2
           X1           0.36692
           Y1          -0.00005   0.67517
           Z1          -0.00025  -0.00003   0.67520
           X2          -0.08524   0.06447  -0.04617   0.07069
           Y2           0.05676  -0.25764   0.11820  -0.05973   0.24942
           Z2          -0.04064   0.11821  -0.17740   0.04279  -0.13172
           X3          -0.08521  -0.07218  -0.03271   0.00726   0.00927
           Y3          -0.06355  -0.29975  -0.09390  -0.00718  -0.01115
           Z3          -0.02880  -0.09391  -0.13527   0.01142   0.01894
           X4          -0.08540   0.00778   0.07919   0.00729  -0.00630
           Y4           0.00685  -0.09508  -0.02427  -0.01316   0.01612
           Z4           0.06975  -0.02427  -0.33982   0.00315  -0.00319
           X5           0.00000   0.00000   0.00000   0.00000   0.00000
           Y5           0.00000   0.00000   0.00000   0.00000   0.00000
           Z5           0.00000   0.00000   0.00000   0.00000   0.00000
           X6          -0.11107  -0.00002  -0.00005   0.00000   0.00000
           Y6          -0.00002  -0.02271  -0.00000   0.01561   0.00324
           Z6          -0.00005  -0.00000  -0.02271  -0.01118  -0.00224
                          Z2        X3        Y3        Z3        X4
           Z2           0.16000
           X3           0.00980   0.07066
           Y3          -0.01246   0.06688   0.29636
           Z3           0.02149   0.03031   0.10463   0.11306
           X4          -0.01194   0.00728   0.00385  -0.01293   0.07084
           Y4           0.02819   0.01352   0.01052  -0.03144  -0.00721
           Z4          -0.00581   0.00052  -0.00005  -0.00020  -0.07341
           X5           0.00000   0.00000   0.00000   0.00000   0.00000
           Y5           0.00000   0.00000   0.00000   0.00000   0.00000
           Z5           0.00000   0.00000   0.00000   0.00000   0.00000
           X6          -0.00000   0.00001  -0.00000  -0.00000  -0.00001
           Y6          -0.00223  -0.01749   0.00403   0.00177   0.00188
           Z6           0.00171  -0.00793   0.00178   0.00092   0.01910
                          Y4        Z4        X5        Y5        Z5
           Y4           0.06827
           Z4           0.02705   0.34101
           X5           0.00000   0.00000   1.00000
           Y5           0.00000   0.00000   0.00000   1.00000
           Z5           0.00000   0.00000   0.00000   0.00000   1.00000
           X6          -0.00000  -0.00000   0.00000   0.00000   0.00000
           Y6           0.00016   0.00046   0.00000   0.00000   0.00000
           Z6           0.00046   0.00481   0.00000   0.00000   0.00000
                          X6        Y6        Z6
           X6           0.11107
           Y6           0.00002   0.01527
           Z6           0.00006  -0.00000   0.01527
 ITU=  0
     Eigenvalues ---    0.05095   0.05095   0.05490   0.08619   0.08619
     Eigenvalues ---    0.14677   0.14678   0.26076   0.54807   0.73485
     Eigenvalues ---    0.97846   0.97856
 Angle between quadratic step and forces=  52.59 degrees.
 Linear search not attempted -- first point.
 B after Tr=     0.034029   -0.000010   -0.000001
         Rot=    1.000000    0.000000   -0.000004    0.000001 Ang=  -0.00 deg.
 Variable       Old X    -DE/DX   Delta X   Delta X   Delta X     New X
                                 (Linear)    (Quad)   (Total)
    X1        1.02894  -0.01724   0.00000  -0.07193  -0.03790   0.99104
    Y1        0.00074   0.00001   0.00000   0.00003   0.00002   0.00076
    Z1        0.00223  -0.00001   0.00000   0.00001  -0.00000   0.00223
    X2        1.52663  -0.00064   0.00000  -0.06685  -0.03281   1.49382
    Y2       -1.60502   0.00015   0.00000   0.00131   0.00129  -1.60373
    Z2        1.15288  -0.00010   0.00000  -0.00090  -0.00091   1.15197
    X3        1.52637  -0.00064   0.00000  -0.06688  -0.03284   1.49353
    Y3        1.79998  -0.00017   0.00000  -0.00140  -0.00142   1.79857
    Z3        0.81810  -0.00008   0.00000  -0.00062  -0.00063   0.81747
    X4        1.52871  -0.00063   0.00000  -0.06670  -0.03268   1.49603
    Y4       -0.19230   0.00002   0.00000   0.00018   0.00016  -0.19213
    Z4       -1.96324   0.00020   0.00000   0.00163   0.00161  -1.96162
    X5        6.15643   0.01093   0.00000   0.01490   0.04893   6.20536
    Y5       -0.00019  -0.00001   0.00000  -0.00003  -0.00005  -0.00024
    Z5       -0.00055  -0.00001   0.00000  -0.00005  -0.00011  -0.00065
    X6       -2.94289   0.00821   0.00000   0.05327   0.08730  -2.85559
    Y6       -0.00006  -0.00000   0.00000  -0.00001  -0.00001  -0.00007
    Z6       -0.00019   0.00000   0.00000   0.00001   0.00004  -0.00015
         Item               Value     Threshold  Converged?
 Maximum Force            0.017240     0.000450     NO 
 RMS     Force            0.005194     0.000300     NO 
 Maximum Displacement     0.087303     0.001800     NO 
 RMS     Displacement     0.028561     0.001200     NO 
 Predicted change in Energy=-1.016284D-04
 GradGradGradGradGradGradGradGradGradGradGradGradGradGradGradGradGradGrad

 1\1\GINC-FS\Force\RM062X\6-311G(d,p)\C1H3Br1Cl1(1-)\XINYAN\22-Jan-2019
 \0\\# M062X/6-311G** force nosymm int=ultrafine\\Title\\-1,1\C,0.54449
 ,0.00039,0.00118\H,0.80786,-0.84934,0.61008\H,0.80772,0.95251,0.43292\
 H,0.80896,-0.10176,-1.0389\Cl,3.25784,-0.0001,-0.00029\Br,-1.55731,-0.
 00003,-0.0001\\Version=ES64L-G16RevA.03\HF=-3074.3475668\RMSD=3.875e-0
 9\RMSF=5.194e-03\Dipole=-3.6826182,0.0004341,0.001192\Quadrupole=-25.2
 672609,12.6334055,12.6338554,0.0013421,0.0034284,-0.0002555\PG=C01 [X(
 C1H3Br1Cl1)]\\@


 WE LEARN WISDOM FROM FAILURE MUCH MORE THAN FROM SUCCESS.
 WE DISCOVER WHAT WILL DO BY FINDING OUT WHAT WILL NOT DO...
 AND HE WHO NEVER MADE A MISTAKE NEVER MADE A DISCOVERY
 Job cpu time:       0 days  0 hours  0 minutes 44.8 seconds.
 Elapsed time:       0 days  0 hours  0 minutes  9.5 seconds.
 File lengths (MBytes):  RWF=     10 Int=      0 D2E=      0 Chk=      2 Scr=      1
 Normal termination of Gaussian 16 at Tue Jan 22 16:50:53 2019.
