 Entering Gaussian System, Link 0=g09
 Input=ts.gjf
 Output=ts.log
 Initial command:
 /home/xinyan/g09/l1.exe "/scratch/tmp/Gau-16655.inp" -scrdir="/scratch/tmp/"
 Entering Link 1 = /home/xinyan/g09/l1.exe PID=     16660.
  
 Copyright (c) 1988,1990,1992,1993,1995,1998,2003,2009,2013,
            Gaussian, Inc.  All Rights Reserved.
  
 This is part of the Gaussian(R) 09 program.  It is based on
 the Gaussian(R) 03 system (copyright 2003, Gaussian, Inc.),
 the Gaussian(R) 98 system (copyright 1998, Gaussian, Inc.),
 the Gaussian(R) 94 system (copyright 1995, Gaussian, Inc.),
 the Gaussian 92(TM) system (copyright 1992, Gaussian, Inc.),
 the Gaussian 90(TM) system (copyright 1990, Gaussian, Inc.),
 the Gaussian 88(TM) system (copyright 1988, Gaussian, Inc.),
 the Gaussian 86(TM) system (copyright 1986, Carnegie Mellon
 University), and the Gaussian 82(TM) system (copyright 1983,
 Carnegie Mellon University). Gaussian is a federally registered
 trademark of Gaussian, Inc.
  
 This software contains proprietary and confidential information,
 including trade secrets, belonging to Gaussian, Inc.
  
 This software is provided under written license and may be
 used, copied, transmitted, or stored only in accord with that
 written license.
  
 The following legend is applicable only to US Government
 contracts under FAR:
  
                    RESTRICTED RIGHTS LEGEND
  
 Use, reproduction and disclosure by the US Government is
 subject to restrictions as set forth in subparagraphs (a)
 and (c) of the Commercial Computer Software - Restricted
 Rights clause in FAR 52.227-19.
  
 Gaussian, Inc.
 340 Quinnipiac St., Bldg. 40, Wallingford CT 06492
  
  
 ---------------------------------------------------------------
 Warning -- This program may not be used in any manner that
 competes with the business of Gaussian, Inc. or will provide
 assistance to any competitor of Gaussian, Inc.  The licensee
 of this program is prohibited from giving any competitor of
 Gaussian, Inc. access to this program.  By using this program,
 the user acknowledges that Gaussian, Inc. is engaged in the
 business of creating and licensing software in the field of
 computational chemistry and represents and warrants to the
 licensee that it is not a competitor of Gaussian, Inc. and that
 it will not use this program in any manner prohibited above.
 ---------------------------------------------------------------
  

 Cite this work as:
 Gaussian 09, Revision D.01,
 M. J. Frisch, G. W. Trucks, H. B. Schlegel, G. E. Scuseria, 
 M. A. Robb, J. R. Cheeseman, G. Scalmani, V. Barone, B. Mennucci, 
 G. A. Petersson, H. Nakatsuji, M. Caricato, X. Li, H. P. Hratchian, 
 A. F. Izmaylov, J. Bloino, G. Zheng, J. L. Sonnenberg, M. Hada, 
 M. Ehara, K. Toyota, R. Fukuda, J. Hasegawa, M. Ishida, T. Nakajima, 
 Y. Honda, O. Kitao, H. Nakai, T. Vreven, J. A. Montgomery, Jr., 
 J. E. Peralta, F. Ogliaro, M. Bearpark, J. J. Heyd, E. Brothers, 
 K. N. Kudin, V. N. Staroverov, T. Keith, R. Kobayashi, J. Normand, 
 K. Raghavachari, A. Rendell, J. C. Burant, S. S. Iyengar, J. Tomasi, 
 M. Cossi, N. Rega, J. M. Millam, M. Klene, J. E. Knox, J. B. Cross, 
 V. Bakken, C. Adamo, J. Jaramillo, R. Gomperts, R. E. Stratmann, 
 O. Yazyev, A. J. Austin, R. Cammi, C. Pomelli, J. W. Ochterski, 
 R. L. Martin, K. Morokuma, V. G. Zakrzewski, G. A. Voth, 
 P. Salvador, J. J. Dannenberg, S. Dapprich, A. D. Daniels, 
 O. Farkas, J. B. Foresman, J. V. Ortiz, J. Cioslowski, 
 and D. J. Fox, Gaussian, Inc., Wallingford CT, 2013.
 
 ******************************************
 Gaussian 09:  ES64L-G09RevD.01 24-Apr-2013
                29-Jan-2019 
 ******************************************
 %nproc=5
 Will use up to    5 processors via shared memory.
 %mem=100mw
 -----------------------------------
 # M062X/6-311G** freq int=ultrafine
 -----------------------------------
 1/10=4,30=1,38=1/1,3;
 2/12=2,17=6,18=5,40=1/2;
 3/5=4,6=6,7=101,11=2,16=1,25=1,30=1,71=2,74=-55,75=-5,140=1/1,2,3;
 4//1;
 5/5=2,38=5,98=1/2;
 8/6=4,10=90,11=11/1;
 11/6=1,8=1,9=11,15=111,16=1/1,2,10;
 10/6=1/2;
 6/7=2,8=2,9=2,10=2,18=1,28=1/1;
 7/8=1,10=1,25=1/1,2,3,16;
 1/10=4,30=1/3;
 99//99;
 -----
 Title
 -----
 Symbolic Z-matrix:
 Charge = -1 Multiplicity = 1
 C                     0.74014   0.00009   0.00134 
 H                     0.75539  -0.87274   0.62551 
 H                     0.75541   0.97707   0.44511 
 H                     0.75517  -0.10408  -1.06654 
 Cl                    3.08994  -0.00003  -0.00037 
 Br                   -1.69245  -0.00001  -0.00017 
 

 GradGradGradGradGradGradGradGradGradGradGradGradGradGradGradGradGradGrad
 Berny optimization.
 Initialization pass.
 Trust Radius=3.00D-01 FncErr=1.00D-07 GrdErr=1.00D-07
 Number of steps in this run=      2 maximum allowed number of steps=      2.
 GradGradGradGradGradGradGradGradGradGradGradGradGradGradGradGradGradGrad

                          Input orientation:                          
 ---------------------------------------------------------------------
 Center     Atomic      Atomic             Coordinates (Angstroms)
 Number     Number       Type             X           Y           Z
 ---------------------------------------------------------------------
      1          6           0        0.740136    0.000094    0.001344
      2          1           0        0.755387   -0.872735    0.625513
      3          1           0        0.755406    0.977072    0.445112
      4          1           0        0.755171   -0.104075   -1.066537
      5         17           0        3.089937   -0.000025   -0.000367
      6         35           0       -1.692449   -0.000011   -0.000169
 ---------------------------------------------------------------------
                    Distance matrix (angstroms):
                    1          2          3          4          5
     1  C    0.000000
     2  H    1.073150   0.000000
     3  H    1.073149   1.858583   0.000000
     4  H    1.073055   1.858459   1.858484   0.000000
     5  Cl   2.349802   2.569722   2.569670   2.568789   0.000000
     6  Br   2.432585   2.673018   2.673006   2.671856   4.782386
                    6
     6  Br   0.000000
 This structure is nearly, but not quite of a higher symmetry.
 Consider Symm=Loose if the higher symmetry is desired.
 Stoichiometry    CH3BrCl(1-)
 Framework group  C1[X(CH3BrCl)]
 Deg. of freedom    12
 Full point group                 C1      NOp   1
 Largest Abelian subgroup         C1      NOp   1
 Largest concise Abelian subgroup C1      NOp   1
                         Standard orientation:                         
 ---------------------------------------------------------------------
 Center     Atomic      Atomic             Coordinates (Angstroms)
 Number     Number       Type             X           Y           Z
 ---------------------------------------------------------------------
      1          6           0       -0.001343    0.000665    0.740136
      2          1           0       -0.626185   -0.871670    0.756060
      3          1           0       -0.444358    0.977996    0.754653
      4          1           0        1.066457   -0.104315    0.755251
      5         17           0        0.000369    0.002356    3.089936
      6         35           0        0.000168   -0.001316   -1.692448
 ---------------------------------------------------------------------
 Rotational constants (GHZ):    145.1772660      0.8891776      0.8891772
 Standard basis: 6-311G(d,p) (5D, 7F)
 There are   111 symmetry adapted cartesian basis functions of A   symmetry.
 There are   106 symmetry adapted basis functions of A   symmetry.
   106 basis functions,   195 primitive gaussians,   111 cartesian basis functions
    31 alpha electrons       31 beta electrons
       nuclear repulsion energy       175.5146870825 Hartrees.
 NAtoms=    6 NActive=    6 NUniq=    6 SFac= 1.00D+00 NAtFMM=   60 NAOKFM=F Big=F
 Integral buffers will be    131072 words long.
 Raffenetti 2 integral format.
 Two-electron integral symmetry is turned on.
 One-electron integrals computed using PRISM.
 NBasis=   106 RedAO= T EigKep=  1.10D-02  NBF=   106
 NBsUse=   106 1.00D-06 EigRej= -1.00D+00 NBFU=   106
 ExpMin= 1.03D-01 ExpMax= 4.40D+05 ExpMxC= 1.51D+04 IAcc=3 IRadAn=         5 AccDes= 0.00D+00
 Harris functional with IExCor= 1009 and IRadAn=       5 diagonalized for initial guess.
 HarFok:  IExCor= 1009 AccDes= 0.00D+00 IRadAn=         5 IDoV= 1 UseB2=F ITyADJ=14
 ICtDFT=  3500011 ScaDFX=  1.000000  1.000000  1.000000  1.000000
 FoFCou: FMM=F IPFlag=           0 FMFlag=      100000 FMFlg1=           0
         NFxFlg=           0 DoJE=T BraDBF=F KetDBF=T FulRan=T
         wScrn=  0.000000 ICntrl=     500 IOpCl=  0 I1Cent=   200000004 NGrid=           0
         NMat0=    1 NMatS0=      1 NMatT0=    0 NMatD0=    1 NMtDS0=    0 NMtDT0=    0
 Petite list used in FoFCou.
 Keep R1 ints in memory in canonical form, NReq=17074682.
 Requested convergence on RMS density matrix=1.00D-08 within 128 cycles.
 Requested convergence on MAX density matrix=1.00D-06.
 Requested convergence on             energy=1.00D-06.
 No special actions if energy rises.
 Integral accuracy reduced to 1.0D-05 until final iterations.
 Initial convergence to 1.0D-05 achieved.  Increase integral accuracy.
 SCF Done:  E(RM062X) =  -3074.33747409     A.U. after   14 cycles
            NFock= 14  Conv=0.37D-08     -V/T= 2.0014
 DoSCS=F DFT=T ScalE2(SS,OS)=  1.000000  1.000000
 Range of M.O.s used for correlation:     1   106
 NBasis=   106 NAE=    31 NBE=    31 NFC=     0 NFV=     0
 NROrb=    106 NOA=    31 NOB=    31 NVA=    75 NVB=    75
 Symmetrizing basis deriv contribution to polar:
 IMax=3 JMax=2 DiffMx= 0.00D+00
 G2DrvN: will do     7 centers at a time, making    1 passes.
 Calling FoFCou, ICntrl=  3107 FMM=F I1Cent=   0 AccDes= 0.00D+00.
 End of G2Drv F.D. properties file   721 does not exist.
 End of G2Drv F.D. properties file   722 does not exist.
 End of G2Drv F.D. properties file   788 does not exist.
          IDoAtm=111111
          Differentiating once with respect to electric field.
                with respect to dipole field.
          Differentiating once with respect to nuclear coordinates.
 Keep R1 ints in memory in canonical form, NReq=17017234.
          There are    21 degrees of freedom in the 1st order CPHF.  IDoFFX=6 NUNeed=     3.
     18 vectors produced by pass  0 Test12= 1.11D-14 4.76D-09 XBig12= 1.05D+02 9.92D+00.
 AX will form    18 AO Fock derivatives at one time.
     18 vectors produced by pass  1 Test12= 1.11D-14 4.76D-09 XBig12= 1.04D+01 1.32D+00.
     18 vectors produced by pass  2 Test12= 1.11D-14 4.76D-09 XBig12= 5.86D-01 2.68D-01.
     18 vectors produced by pass  3 Test12= 1.11D-14 4.76D-09 XBig12= 2.44D-02 5.63D-02.
     18 vectors produced by pass  4 Test12= 1.11D-14 4.76D-09 XBig12= 5.46D-04 7.88D-03.
     18 vectors produced by pass  5 Test12= 1.11D-14 4.76D-09 XBig12= 2.23D-06 3.52D-04.
     11 vectors produced by pass  6 Test12= 1.11D-14 4.76D-09 XBig12= 8.00D-09 2.77D-05.
      3 vectors produced by pass  7 Test12= 1.11D-14 4.76D-09 XBig12= 3.24D-11 1.13D-06.
      1 vectors produced by pass  8 Test12= 1.11D-14 4.76D-09 XBig12= 5.27D-14 4.22D-08.
 InvSVY:  IOpt=1 It=  1 EMax= 3.55D-15
 Solved reduced A of dimension   123 with    21 vectors.
 Isotropic polarizability for W=    0.000000       59.77 Bohr**3.
 End of Minotr F.D. properties file   721 does not exist.
 End of Minotr F.D. properties file   722 does not exist.
 End of Minotr F.D. properties file   788 does not exist.

 **********************************************************************

            Population analysis using the SCF density.

 **********************************************************************

 Orbital symmetries:
       Occupied  (A) (A) (A) (A) (A) (A) (A) (A) (A) (A) (A) (A)
                 (A) (A) (A) (A) (A) (A) (A) (A) (A) (A) (A) (A)
                 (A) (A) (A) (A) (A) (A) (A)
       Virtual   (A) (A) (A) (A) (A) (A) (A) (A) (A) (A) (A) (A)
                 (A) (A) (A) (A) (A) (A) (A) (A) (A) (A) (A) (A)
                 (A) (A) (A) (A) (A) (A) (A) (A) (A) (A) (A) (A)
                 (A) (A) (A) (A) (A) (A) (A) (A) (A) (A) (A) (A)
                 (A) (A) (A) (A) (A) (A) (A) (A) (A) (A) (A) (A)
                 (A) (A) (A) (A) (A) (A) (A) (A) (A) (A) (A) (A)
                 (A) (A) (A)
 The electronic state is 1-A.
 Alpha  occ. eigenvalues -- -485.11146-102.43278 -63.10369 -56.93019 -56.92908
 Alpha  occ. eigenvalues --  -56.92908 -10.45979  -9.57413  -8.78994  -7.29673
 Alpha  occ. eigenvalues --   -7.29408  -7.29408  -6.61406  -6.60967  -6.60967
 Alpha  occ. eigenvalues --   -2.64567  -2.64428  -2.64427  -2.64041  -2.64041
 Alpha  occ. eigenvalues --   -0.69609  -0.64793  -0.59659  -0.37030  -0.37029
 Alpha  occ. eigenvalues --   -0.23212  -0.16550  -0.16549  -0.15047  -0.15046
 Alpha  occ. eigenvalues --   -0.13299
 Alpha virt. eigenvalues --    0.15064   0.22508   0.28816   0.28822   0.46891
 Alpha virt. eigenvalues --    0.47077   0.47079   0.47736   0.50410   0.50412
 Alpha virt. eigenvalues --    0.53739   0.53743   0.65167   0.66626   0.76739
 Alpha virt. eigenvalues --    0.76744   0.78770   0.88769   0.88772   0.89202
 Alpha virt. eigenvalues --    0.89818   0.89823   0.97409   1.16247   1.16249
 Alpha virt. eigenvalues --    1.17138   1.17139   1.19800   1.28995   1.29004
 Alpha virt. eigenvalues --    1.35700   1.58335   1.62579   1.62586   1.65834
 Alpha virt. eigenvalues --    1.98713   2.00358   2.00367   2.09119   2.09131
 Alpha virt. eigenvalues --    2.16829   2.16838   2.27424   2.38411   2.38414
 Alpha virt. eigenvalues --    2.48883   2.59978   2.59984   2.66454   2.79578
 Alpha virt. eigenvalues --    2.79579   2.99456   3.14998   3.90381   3.90395
 Alpha virt. eigenvalues --    4.49891   4.49892   4.52503   4.52509   4.70788
 Alpha virt. eigenvalues --    6.74299   7.75939   7.75941   7.84126   9.86801
 Alpha virt. eigenvalues --   24.08628  25.73627  25.73629  26.04456  48.32332
 Alpha virt. eigenvalues --  215.91426 290.91659 290.91660 291.003481020.81281
          Condensed to atoms (all electrons):
               1          2          3          4          5          6
     1  C    4.981548   0.414616   0.414619   0.414739   0.063918   0.061908
     2  H    0.414616   0.495357  -0.016245  -0.016215  -0.044040  -0.038676
     3  H    0.414619  -0.016245   0.495358  -0.016212  -0.044048  -0.038680
     4  H    0.414739  -0.016215  -0.016212   0.495315  -0.044170  -0.038812
     5  Cl   0.063918  -0.044040  -0.044048  -0.044170  17.703332   0.017234
     6  Br   0.061908  -0.038676  -0.038680  -0.038812   0.017234  35.649219
 Mulliken charges:
               1
     1  C   -0.351347
     2  H    0.205203
     3  H    0.205207
     4  H    0.205356
     5  Cl  -0.652226
     6  Br  -0.612193
 Sum of Mulliken charges =  -1.00000
 Mulliken charges with hydrogens summed into heavy atoms:
               1
     1  C    0.264419
     5  Cl  -0.652226
     6  Br  -0.612193
 APT charges:
               1
     1  C    1.331142
     2  H   -0.035910
     3  H   -0.035760
     4  H   -0.036445
     5  Cl  -1.153241
     6  Br  -1.069788
 Sum of APT charges =  -1.00000
 APT charges with hydrogens summed into heavy atoms:
               1
     1  C    1.223028
     5  Cl  -1.153241
     6  Br  -1.069788
 Electronic spatial extent (au):  <R**2>=           1094.9888
 Charge=             -1.0000 electrons
 Dipole moment (field-independent basis, Debye):
    X=             -0.0035    Y=             -0.0026    Z=             -3.7789  Tot=              3.7789
 Quadrupole moment (field-independent basis, Debye-Ang):
   XX=            -43.0609   YY=            -43.0612   ZZ=            -84.9257
   XY=              0.0002   XZ=             -0.0045   YZ=             -0.0321
 Traceless Quadrupole moment (field-independent basis, Debye-Ang):
   XX=             13.9551   YY=             13.9548   ZZ=            -27.9098
   XY=              0.0002   XZ=             -0.0045   YZ=             -0.0321
 Octapole moment (field-independent basis, Debye-Ang**2):
  XXX=              1.1124  YYY=              0.2996  ZZZ=           -140.3347  XYY=             -1.1157
  XXY=             -0.3502  XXZ=            -16.6253  XZZ=             -0.0052  YZZ=             -0.0817
  YYZ=            -16.6246  XYZ=              0.0006
 Hexadecapole moment (field-independent basis, Debye-Ang**3):
 XXXX=            -63.5356 YYYY=            -63.5330 ZZZZ=          -1641.9833 XXXY=              0.0025
 XXXZ=              0.8588 YYYX=             -0.0023 YYYZ=             -0.2301 ZZZX=             -0.0309
 ZZZY=             -0.7195 XXYY=            -21.1750 XXZZ=           -235.5699 YYZZ=           -235.5707
 XXYZ=             -0.4299 YYXZ=             -0.8803 ZZXY=              0.0025
 N-N= 1.755146870825D+02 E-N=-7.704953624446D+03  KE= 3.070147019952D+03
  Exact polarizability:  26.813  -0.007  26.840  -0.007   0.079 125.647
 Approx polarizability:  32.425   0.000  32.424   0.001   0.077 132.520
 Calling FoFJK, ICntrl=    100127 FMM=F ISym2X=0 I1Cent= 0 IOpClX= 0 NMat=1 NMatS=1 NMatT=0.
 Full mass-weighted force constant matrix:
 Low frequencies --- -406.1177   -2.6471   -0.0127   -0.0127   -0.0076    5.9028
 Low frequencies ---   26.7295  184.9625  192.7049
 ******    1 imaginary frequencies (negative Signs) ****** 
 Diagonal vibrational polarizability:
        8.1713072       8.2362006     236.0692813
 Harmonic frequencies (cm**-1), IR intensities (KM/Mole), Raman scattering
 activities (A**4/AMU), depolarization ratios for plane and unpolarized
 incident light, reduced masses (AMU), force constants (mDyne/A),
 and normal coordinates:
                      1                      2                      3
                      A                      A                      A
 Frequencies --   -406.1175               184.9609               192.7023
 Red. masses --     12.9480                35.8663                 4.1923
 Frc consts  --      1.2582                 0.7229                 0.0917
 IR Inten    --   1406.0879                 2.2354                11.2597
  Atom  AN      X      Y      Z        X      Y      Z        X      Y      Z
     1   6     0.00   0.00   0.98    -0.02   0.00   0.21    -0.21   0.44   0.00
     2   1    -0.01  -0.01   0.06    -0.03  -0.01   0.22    -0.21   0.45  -0.01
     3   1     0.00   0.01   0.06    -0.03   0.00   0.22    -0.22   0.45   0.01
     4   1     0.01   0.00   0.05    -0.02  -0.01   0.22    -0.21   0.45  -0.01
     5  17     0.00   0.00  -0.17     0.00   0.00   0.81     0.05  -0.10   0.00
     6  35     0.00   0.00  -0.07     0.00   0.00  -0.40     0.02  -0.04   0.00
                      4                      5                      6
                      A                      A                      A
 Frequencies --    193.8595               956.9505               957.5400
 Red. masses --      4.1946                 1.0110                 1.0110
 Frc consts  --      0.0929                 0.5455                 0.5462
 IR Inten    --     11.2364                 0.0675                 0.0664
  Atom  AN      X      Y      Z        X      Y      Z        X      Y      Z
     1   6     0.44   0.21   0.00     0.00   0.00   0.00     0.00   0.00   0.00
     2   1     0.45   0.21  -0.01     0.01  -0.01  -0.60    -0.01   0.00  -0.56
     3   1     0.45   0.21   0.00     0.00  -0.01   0.78    -0.02   0.00  -0.24
     4   1     0.45   0.22   0.01     0.00  -0.02  -0.18    -0.01   0.00   0.80
     5  17    -0.10  -0.05   0.00     0.00   0.01   0.00     0.01   0.00   0.00
     6  35    -0.04  -0.02   0.00     0.00   0.00   0.00     0.00   0.00   0.00
                      7                      8                      9
                      A                      A                      A
 Frequencies --   1055.6929              1406.1633              1406.8674
 Red. masses --      1.0360                 1.1034                 1.1034
 Frc consts  --      0.6803                 1.2855                 1.2868
 IR Inten    --    202.3718                 6.4132                 6.3619
  Atom  AN      X      Y      Z        X      Y      Z        X      Y      Z
     1   6     0.00   0.00  -0.02    -0.09  -0.03   0.00    -0.03   0.09   0.00
     2   1     0.00   0.01   0.58     0.36  -0.34  -0.01     0.55  -0.33   0.01
     3   1     0.00  -0.01   0.57     0.73   0.34   0.00    -0.13   0.03  -0.02
     4   1    -0.01   0.00   0.58    -0.05   0.31   0.02    -0.10  -0.74   0.01
     5  17     0.00   0.00  -0.02     0.00   0.00   0.00     0.00   0.00   0.00
     6  35     0.00   0.00  -0.01     0.00   0.00   0.00     0.00   0.00   0.00
                     10                     11                     12
                      A                      A                      A
 Frequencies --   3204.8514              3404.8918              3406.4495
 Red. masses --      1.0079                 1.1234                 1.1233
 Frc consts  --      6.0992                 7.6732                 7.6798
 IR Inten    --      0.2655                 4.7376                 4.5105
  Atom  AN      X      Y      Z        X      Y      Z        X      Y      Z
     1   6     0.00   0.00   0.00    -0.01  -0.10   0.00    -0.10   0.01   0.00
     2   1    -0.34  -0.47   0.01     0.42   0.58  -0.01     0.21   0.31  -0.01
     3   1    -0.24   0.53   0.01    -0.29   0.62   0.01     0.17  -0.40  -0.01
     4   1     0.57  -0.06   0.01     0.04  -0.02   0.00     0.81  -0.08   0.01
     5  17     0.00   0.00   0.00     0.00   0.00   0.00     0.00   0.00   0.00
     6  35     0.00   0.00   0.00     0.00   0.00   0.00     0.00   0.00   0.00

 -------------------
 - Thermochemistry -
 -------------------
 Temperature   298.150 Kelvin.  Pressure   1.00000 Atm.
 Atom     1 has atomic number  6 and mass  12.00000
 Atom     2 has atomic number  1 and mass   1.00783
 Atom     3 has atomic number  1 and mass   1.00783
 Atom     4 has atomic number  1 and mass   1.00783
 Atom     5 has atomic number 17 and mass  34.96885
 Atom     6 has atomic number 35 and mass  78.91834
 Molecular mass:   128.91066 amu.
 Principal axes and moments of inertia in atomic units:
                           1         2         3
     Eigenvalues --    12.431292029.674732029.67562
           X            0.00001  -0.00398   0.99999
           Y            0.00077   0.99999   0.00398
           Z            1.00000  -0.00077  -0.00001
 This molecule is an asymmetric top.
 Rotational symmetry number  1.
 Rotational temperatures (Kelvin)      6.96740     0.04267     0.04267
 Rotational constants (GHZ):         145.17727     0.88918     0.88918
    1 imaginary frequencies ignored.
 Zero-point vibrational energy      97919.9 (Joules/Mol)
                                   23.40342 (Kcal/Mol)
 Warning -- explicit consideration of   3 degrees of freedom as
           vibrations may cause significant error
 Vibrational temperatures:    266.12   277.26   278.92  1376.84  1377.68
          (Kelvin)           1518.90  2023.15  2024.17  4611.06  4898.87
                             4901.11
 
 Zero-point correction=                           0.037296 (Hartree/Particle)
 Thermal correction to Energy=                    0.041987
 Thermal correction to Enthalpy=                  0.042931
 Thermal correction to Gibbs Free Energy=         0.008285
 Sum of electronic and zero-point Energies=          -3074.300178
 Sum of electronic and thermal Energies=             -3074.295487
 Sum of electronic and thermal Enthalpies=           -3074.294543
 Sum of electronic and thermal Free Energies=        -3074.329189
 
                     E (Thermal)             CV                S
                      KCal/Mol        Cal/Mol-Kelvin    Cal/Mol-Kelvin
 Total                   26.347             12.901             72.918
 Electronic               0.000              0.000              0.000
 Translational            0.889              2.981             40.475
 Rotational               0.889              2.981             25.441
 Vibrational             24.570              6.939              7.002
 Vibration     1          0.631              1.860              2.278
 Vibration     2          0.635              1.850              2.202
 Vibration     3          0.635              1.848              2.191
                       Q            Log10(Q)             Ln(Q)
 Total Bot       0.154544D-03         -3.810949         -8.775034
 Total V=0       0.220727D+14         13.343856         30.725363
 Vib (Bot)       0.331613D-16        -16.479368        -37.945148
 Vib (Bot)    1  0.108403D+01          0.035040          0.080683
 Vib (Bot)    2  0.103757D+01          0.016018          0.036883
 Vib (Bot)    3  0.103094D+01          0.013232          0.030468
 Vib (V=0)       0.473627D+01          0.675436          1.555249
 Vib (V=0)    1  0.169378D+01          0.228857          0.526964
 Vib (V=0)    2  0.165176D+01          0.217947          0.501842
 Vib (V=0)    3  0.164579D+01          0.216374          0.498219
 Electronic      0.100000D+01          0.000000          0.000000
 Translational   0.575292D+08          7.759888         17.867804
 Rotational      0.810086D+05          4.908531         11.302311
 ***** Axes restored to original set *****
 -------------------------------------------------------------------
 Center     Atomic                   Forces (Hartrees/Bohr)
 Number     Number              X              Y              Z
 -------------------------------------------------------------------
      1        6          -0.000059136    0.000003587   -0.000013973
      2        1           0.000001106    0.000020549    0.000006801
      3        1          -0.000008435   -0.000008939   -0.000003641
      4        1           0.000013607    0.000000198   -0.000009327
      5       17           0.000107672   -0.000010080    0.000014677
      6       35          -0.000054813   -0.000005315    0.000005463
 -------------------------------------------------------------------
 Cartesian Forces:  Max     0.000107672 RMS     0.000032985

 GradGradGradGradGradGradGradGradGradGradGradGradGradGradGradGradGradGrad
 Berny optimization.
 Search for a local minimum.
 Step number   1 out of a maximum of    2
 All quantities printed in internal units (Hartrees-Bohrs-Radians)
 Second derivative matrix not updated -- analytic derivatives used.
 The second derivative matrix:
                          X1        Y1        Z1        X2        Y2
           X1          -0.06254
           Y1           0.00001   0.68774
           Z1           0.00009   0.00011   0.68804
           X2          -0.00717   0.00451  -0.00327   0.03708
           Y2           0.00413  -0.27402   0.15646  -0.00385   0.27507
           Z2          -0.00298   0.15640  -0.16707   0.00274  -0.16434
           X3          -0.00714  -0.00508  -0.00230   0.00215   0.00040
           Y3          -0.00460  -0.32945  -0.12446  -0.00033  -0.01116
           Z3          -0.00209  -0.12449  -0.11184   0.00035   0.01569
           X4          -0.00703   0.00054   0.00548   0.00214  -0.00013
           Y4           0.00049  -0.05844  -0.03210  -0.00044   0.00684
           Z4           0.00499  -0.03202  -0.38327   0.00019  -0.00533
           X5           0.04557   0.00001  -0.00001  -0.01738   0.00150
           Y5           0.00000  -0.01288   0.00000  -0.00628   0.00160
           Z5          -0.00008   0.00000  -0.01288   0.00453  -0.00118
           X6           0.03831   0.00000   0.00001  -0.01683  -0.00204
           Y6          -0.00003  -0.01294   0.00000   0.00640   0.00166
           Z6           0.00007   0.00000  -0.01296  -0.00454  -0.00130
                          Z2        X3        Y3        Z3        X4
           Z2           0.16272
           X3           0.00028   0.03704
           Y3          -0.01149   0.00431   0.33320
           Z3           0.01045   0.00196   0.13085   0.10459
           X4          -0.00047   0.00214   0.00005  -0.00049   0.03709
           Y4           0.02189   0.00046   0.00320  -0.02400  -0.00041
           Z4          -0.00767   0.00011   0.00315  -0.00391  -0.00465
           X5          -0.00106  -0.01740  -0.00170  -0.00076  -0.01746
           Y5          -0.00117   0.00705   0.00204   0.00094  -0.00078
           Z5           0.00073   0.00321   0.00095   0.00032  -0.00770
           X6           0.00149  -0.01679   0.00228   0.00103  -0.01688
           Y6          -0.00129  -0.00714   0.00217   0.00100   0.00073
           Z6           0.00084  -0.00326   0.00100   0.00040   0.00782
                          Y4        Z4        X5        Y5        Z5
           Y4           0.04854
           Z4           0.03360   0.38994
           X5           0.00018   0.00182   0.03402
           Y5          -0.00003   0.00028   0.00001   0.00726
           Z5           0.00029   0.00252   0.00001  -0.00005   0.00730
           X6          -0.00028  -0.00247  -0.02735   0.00000   0.00002
           Y6          -0.00011   0.00032   0.00001   0.00200   0.00000
           Z6           0.00031   0.00240  -0.00001   0.00000   0.00201
                          X6        Y6        Z6
           X6           0.03953
           Y6           0.00003   0.00722
           Z6          -0.00009  -0.00002   0.00732
 ITU=  0
     Eigenvalues ---   -0.09226   0.00917   0.00928   0.03678   0.03683
     Eigenvalues ---    0.05471   0.06871   0.10639   0.10648   0.39198
     Eigenvalues ---    1.01593   1.01661
 Eigenvalue     1 is  -9.23D-02 should be greater than     0.000000 Eigenvector:
                          X1        X5        X6        X2        X3
   1                    0.93867  -0.28177  -0.19729   0.01041   0.01018
                          Z4        X4        Y3        Y2        Z2
   1                   -0.00961   0.00907   0.00863  -0.00795   0.00574
 Angle between quadratic step and forces=  38.55 degrees.
 Linear search not attempted -- first point.
 TrRot= -0.000089 -0.000274  0.000379  0.000001  0.000028  0.000001
 Variable       Old X    -DE/DX   Delta X   Delta X   Delta X     New X
                                 (Linear)    (Quad)   (Total)
    X1        1.39865  -0.00006   0.00000  -0.00059  -0.00068   1.39798
    Y1        0.00018   0.00000   0.00000   0.00052   0.00024   0.00042
    Z1        0.00254  -0.00001   0.00000  -0.00075  -0.00041   0.00213
    X2        1.42747   0.00000   0.00000   0.00011   0.00006   1.42753
    Y2       -1.64923   0.00002   0.00000   0.00065   0.00038  -1.64885
    Z2        1.18205   0.00001   0.00000  -0.00063  -0.00029   1.18176
    X3        1.42751  -0.00001   0.00000  -0.00012  -0.00019   1.42733
    Y3        1.84640  -0.00001   0.00000   0.00048   0.00021   1.84660
    Z3        0.84114   0.00000   0.00000  -0.00067  -0.00034   0.84080
    X4        1.42707   0.00001   0.00000   0.00048   0.00034   1.42740
    Y4       -0.19667   0.00000   0.00000   0.00061   0.00034  -0.19633
    Z4       -2.01546  -0.00001   0.00000  -0.00079  -0.00045  -2.01592
    X5        5.83913   0.00011   0.00000   0.00161   0.00152   5.84065
    Y5       -0.00005  -0.00001   0.00000  -0.00039  -0.00065  -0.00070
    Z5       -0.00069   0.00001   0.00000   0.00046   0.00067  -0.00002
    X6       -3.19827  -0.00005   0.00000  -0.00096  -0.00105  -3.19931
    Y6       -0.00002  -0.00001   0.00000  -0.00024  -0.00052  -0.00054
    Z6       -0.00032   0.00001   0.00000   0.00034   0.00081   0.00049
         Item               Value     Threshold  Converged?
 Maximum Force            0.000108     0.000450     YES
 RMS     Force            0.000033     0.000300     YES
 Maximum Displacement     0.001519     0.001800     YES
 RMS     Displacement     0.000613     0.001200     YES
 Predicted change in Energy=-2.135927D-07
 Optimization completed.
    -- Stationary point found.
 GradGradGradGradGradGradGradGradGradGradGradGradGradGradGradGradGradGrad

 1\1\GINC-LOGIN\Freq\RM062X\6-311G(d,p)\C1H3Br1Cl1(1-)\XINYAN\29-Jan-20
 19\0\\# M062X/6-311G** freq int=ultrafine\\Title\\-1,1\C,0.740136,0.00
 0094,0.001344\H,0.755387,-0.872735,0.625513\H,0.755406,0.977072,0.4451
 12\H,0.755171,-0.104075,-1.066537\Cl,3.089937,-0.000025,-0.000367\Br,-
 1.692449,-0.000011,-0.000169\\Version=ES64L-G09RevD.01\State=1-A\HF=-3
 074.3374741\RMSD=3.724e-09\RMSF=3.299e-05\ZeroPoint=0.0372957\Thermal=
 0.0419866\Dipole=-1.4867154,0.0001378,0.0013669\DipoleDeriv=3.9277223,
 0.0001673,0.0004111,-0.0000151,0.0320586,-0.0002558,-0.0002246,0.00014
 99,0.0336463,-0.2514073,-0.0090653,0.0064641,-0.0135111,0.069592,0.007
 0378,0.0095305,0.0063925,0.0740866,-0.2509959,0.01024,0.0045859,0.0151
 426,0.0666741,-0.0053342,0.0067211,-0.0054015,0.0770425,-0.2509273,-0.
 0011633,-0.0111285,-0.0020281,0.0790554,-0.0012894,-0.0170761,-0.00096
 16,0.0625372,-2.1772785,0.0000625,0.0000022,-0.0000418,-0.6411655,-0.0
 000156,0.001587,-0.0000272,-0.6412777,-1.9971132,-0.0002413,-0.0003348
 ,0.0004536,-0.6062146,-0.0001428,-0.000538,-0.0001522,-0.6060349\Polar
 =125.6468152,0.0029628,26.8404024,0.0067317,0.0071103,26.8128314\PG=C0
 1 [X(C1H3Br1Cl1)]\NImag=1\\-0.06254368,0.00001304,0.68773650,0.0000880
 2,0.00010722,0.68803545,-0.00717231,0.00451301,-0.00326955,0.03708418,
 0.00412690,-0.27401930,0.15645775,-0.00385408,0.27507443,-0.00298299,0
 .15640118,-0.16707371,0.00273781,-0.16434107,0.16272437,-0.00714088,-0
 .00507872,-0.00230134,0.00215468,0.00039879,0.00028064,0.03704149,-0.0
 0460354,-0.32945317,-0.12446124,-0.00033152,-0.01115592,-0.01148920,0.
 00430577,0.33319605,-0.00208918,-0.12449474,-0.11184448,0.00034987,0.0
 1569049,0.01044564,0.00195764,0.13085487,0.10458877,-0.00702728,0.0005
 3761,0.00547995,0.00214182,-0.00013069,-0.00046710,0.00213782,0.000050
 88,-0.00048718,0.03708957,0.00049181,-0.05844340,-0.03209802,-0.000442
 85,0.00683980,0.02189255,0.00045735,0.00320317,-0.02399616,-0.00040829
 ,0.04854107,0.00499197,-0.03201530,-0.38327293,0.00019143,-0.00533236,
 -0.00766979,0.00011261,0.00314697,-0.00391348,-0.00465241,0.03359911,0
 .38994192,0.04557010,0.00001204,-0.00000734,-0.01738263,0.00149598,-0.
 00106293,-0.01740354,-0.00170405,-0.00075684,-0.01746127,0.00018191,0.
 00182145,0.03402376,-0.00000239,-0.01287615,-0.00000286,-0.00628248,0.
 00160440,-0.00117097,0.00705444,0.00204376,0.00094461,-0.00077718,-0.0
 0003437,0.00028323,0.00000795,0.00725809,-0.00007797,-0.00000249,-0.01
 288135,0.00453473,-0.00117743,0.00073380,0.00320555,0.00094540,0.00032
 217,-0.00769565,0.00028861,0.00251873,0.00001291,-0.00005348,0.0072999
 1,0.03831405,0.00000302,0.00001027,-0.01682573,-0.00203690,0.00149458,
 -0.01678958,0.00228247,0.00102569,-0.01688066,-0.00027993,-0.00246505,
 -0.02734643,-0.00000034,0.00002044,0.03952835,-0.00002581,-0.01294449,
 -0.00000284,0.00639793,0.00165659,-0.00129249,-0.00713764,0.00216611,0
 .00100093,0.00072767,-0.00010628,0.00031835,0.00000617,0.00200426,-0.0
 0000060,0.00003168,0.00722381,0.00007015,0.00000413,-0.01296299,-0.004
 54429,-0.00129738,0.00083969,-0.00325509,0.00100320,0.00040138,0.00782
 240,0.00031392,0.00239554,-0.00000724,-0.00000053,0.00200674,-0.000085
 93,-0.00002335,0.00731963\\0.00005914,-0.00000359,0.00001397,-0.000001
 11,-0.00002055,-0.00000680,0.00000844,0.00000894,0.00000364,-0.0000136
 1,-0.00000020,0.00000933,-0.00010767,0.00001008,-0.00001468,0.00005481
 ,0.00000531,-0.00000546\\\@


 WE DON'T KNOW ONE MILLIONTH OF ONE PERCENT ABOUT
 ANYTHING.
                                     T. A. EDISON.
 Job cpu time:       0 days  0 hours  5 minutes 34.0 seconds.
 File lengths (MBytes):  RWF=    132 Int=      0 D2E=      0 Chk=      2 Scr=      2
 Normal termination of Gaussian 09 at Tue Jan 29 17:07:39 2019.
