 Entering Gaussian System, Link 0=g16
 Input=C27N3H41SO5-152.gjf
 Output=C27N3H41SO5-152.log
 Initial command:
 /home/xinyan/g16/l1.exe "/local/home/tmp/Gau-28598.inp" -scrdir="/local/home/tmp/"
 Entering Link 1 = /home/xinyan/g16/l1.exe PID=     28599.
  
 Copyright (c) 1988,1990,1992,1993,1995,1998,2003,2009,2016,
            Gaussian, Inc.  All Rights Reserved.
  
 This is part of the Gaussian(R) 16 program.  It is based on
 the Gaussian(R) 09 system (copyright 2009, Gaussian, Inc.),
 the Gaussian(R) 03 system (copyright 2003, Gaussian, Inc.),
 the Gaussian(R) 98 system (copyright 1998, Gaussian, Inc.),
 the Gaussian(R) 94 system (copyright 1995, Gaussian, Inc.),
 the Gaussian 92(TM) system (copyright 1992, Gaussian, Inc.),
 the Gaussian 90(TM) system (copyright 1990, Gaussian, Inc.),
 the Gaussian 88(TM) system (copyright 1988, Gaussian, Inc.),
 the Gaussian 86(TM) system (copyright 1986, Carnegie Mellon
 University), and the Gaussian 82(TM) system (copyright 1983,
 Carnegie Mellon University). Gaussian is a federally registered
 trademark of Gaussian, Inc.
  
 This software contains proprietary and confidential information,
 including trade secrets, belonging to Gaussian, Inc.
  
 This software is provided under written license and may be
 used, copied, transmitted, or stored only in accord with that
 written license.
  
 The following legend is applicable only to US Government
 contracts under FAR:
  
                    RESTRICTED RIGHTS LEGEND
  
 Use, reproduction and disclosure by the US Government is
 subject to restrictions as set forth in subparagraphs (a)
 and (c) of the Commercial Computer Software - Restricted
 Rights clause in FAR 52.227-19.
  
 Gaussian, Inc.
 340 Quinnipiac St., Bldg. 40, Wallingford CT 06492
  
  
 ---------------------------------------------------------------
 Warning -- This program may not be used in any manner that
 competes with the business of Gaussian, Inc. or will provide
 assistance to any competitor of Gaussian, Inc.  The licensee
 of this program is prohibited from giving any competitor of
 Gaussian, Inc. access to this program.  By using this program,
 the user acknowledges that Gaussian, Inc. is engaged in the
 business of creating and licensing software in the field of
 computational chemistry and represents and warrants to the
 licensee that it is not a competitor of Gaussian, Inc. and that
 it will not use this program in any manner prohibited above.
 ---------------------------------------------------------------
  

 Cite this work as:
 Gaussian 16, Revision A.03,
 M. J. Frisch, G. W. Trucks, H. B. Schlegel, G. E. Scuseria, 
 M. A. Robb, J. R. Cheeseman, G. Scalmani, V. Barone, 
 G. A. Petersson, H. Nakatsuji, X. Li, M. Caricato, A. V. Marenich, 
 J. Bloino, B. G. Janesko, R. Gomperts, B. Mennucci, H. P. Hratchian, 
 J. V. Ortiz, A. F. Izmaylov, J. L. Sonnenberg, D. Williams-Young, 
 F. Ding, F. Lipparini, F. Egidi, J. Goings, B. Peng, A. Petrone, 
 T. Henderson, D. Ranasinghe, V. G. Zakrzewski, J. Gao, N. Rega, 
 G. Zheng, W. Liang, M. Hada, M. Ehara, K. Toyota, R. Fukuda, 
 J. Hasegawa, M. Ishida, T. Nakajima, Y. Honda, O. Kitao, H. Nakai, 
 T. Vreven, K. Throssell, J. A. Montgomery, Jr., J. E. Peralta, 
 F. Ogliaro, M. J. Bearpark, J. J. Heyd, E. N. Brothers, K. N. Kudin, 
 V. N. Staroverov, T. A. Keith, R. Kobayashi, J. Normand, 
 K. Raghavachari, A. P. Rendell, J. C. Burant, S. S. Iyengar, 
 J. Tomasi, M. Cossi, J. M. Millam, M. Klene, C. Adamo, R. Cammi, 
 J. W. Ochterski, R. L. Martin, K. Morokuma, O. Farkas, 
 J. B. Foresman, and D. J. Fox, Gaussian, Inc., Wallingford CT, 2016.
 
 ******************************************
 Gaussian 16:  ES64L-G16RevA.03 25-Dec-2016
                 7-Feb-2019 
 ******************************************
 %nproc=24
 Will use up to   24 processors via shared memory.
 ------------------------------------------
 #p M062X/6-31G* em=gd3 force int=ultrafine
 ------------------------------------------
 1/10=7,30=1,38=1/1,3;
 2/12=2,17=6,18=5,40=1/2;
 3/5=1,6=6,7=1,11=2,25=1,30=1,71=1,74=-55,75=-5,124=31/1,2,3;
 4//1;
 5/5=2,38=5/2;
 6/7=2,8=2,9=2,10=2,28=1/1;
 7/29=1/1,2,3,16;
 1/10=7,30=1/3;
 99//99;
 Leave Link    1 at Thu Feb  7 16:56:02 2019, MaxMem=           0 cpu:               2.5 elap:               0.1
 (Enter /home/xinyan/g16/l101.exe)
 -----
 Title
 -----
 Symbolic Z-matrix:
 Charge =  0 Multiplicity = 1
 C                    -4.90391   0.22538  -0.48556 
 C                    -5.06062  -1.0418   -1.33145 
 C                    -3.71183  -1.47621  -1.91789 
 C                    -2.73521  -1.71405  -0.77203 
 C                    -2.53152  -0.42031   0.0592 
 C                    -3.87699   0.03612   0.63532 
 H                    -3.81294  -2.38235  -2.52488 
 H                    -5.46202  -1.85329  -0.71037 
 H                    -5.77711  -0.87475  -2.14184 
 H                    -4.5789    1.04999  -1.13331 
 H                    -5.87015   0.51333  -0.05862 
 H                    -3.13411  -2.49132  -0.11285 
 H                    -2.19247   0.35602  -0.63882 
 H                    -4.24064  -0.70671   1.35301 
 H                    -3.7171    0.97849   1.16972 
 H                    -3.346    -0.6723   -2.57088 
 N                    -1.39867  -2.1855   -1.19004 
 C                    -0.69433  -1.50173  -2.1299 
 C                    -0.7201   -2.9816   -0.32036 
 C                     0.66345  -1.55622  -2.20219 
 H                    -1.27388  -0.88199  -2.80286 
 C                     0.63736  -3.06385  -0.31127 
 H                    -1.32646  -3.49502   0.41795 
 C                     1.3965   -2.24857  -1.19254 
 H                     1.16821  -0.98935  -2.97249 
 H                     1.10776  -3.65595   0.46091 
 N                     2.71658  -2.14351  -1.08377 
 C                     3.42237  -2.57949   0.13169 
 H                     3.30263  -3.65597   0.28193 
 H                     3.00621  -2.02535   0.98645 
 C                     3.46349  -1.09497  -1.78927 
 H                     3.71999  -1.43309  -2.80078 
 H                     2.8435   -0.196    -1.84808 
 N                    -1.44437  -0.53709   1.01802 
 S                    -1.54711  -1.41882   2.38359 
 O                    -2.74687  -2.259     2.30951 
 O                    -0.26365  -2.09065   2.6076 
 C                    -0.73351   2.49344   0.32775 
 C                    -0.25624   2.07379  -0.92367 
 C                    -1.04046   2.21181  -2.06685 
 C                    -2.31983   2.76355  -1.99325 
 C                    -2.80873   3.17595  -0.75717 
 C                    -2.01713   3.04284   0.38407 
 H                     0.70935   1.5861   -0.97464 
 H                    -0.64359   1.89156  -3.02732 
 H                    -2.92572   2.87513  -2.88828 
 H                    -3.80327   3.60688  -0.67865 
 H                    -2.40605   3.38061   1.34282 
 O                     0.54863   1.28122   2.15323 
 H                    -0.44473  -0.29523   0.73404 
 C                     1.66483   0.548     1.48855 
 O                     1.24492  -0.01252   0.37126 
 O                     2.03357  -0.37802   2.49551 
 H                     1.31555  -1.03734   2.51217 
 C                     2.89723   1.48751   1.39177 
 H                     2.87849   2.17973   2.24284 
 H                     3.76907   0.84234   1.55837 
 C                     0.11206   2.49448   1.60439 
 H                    -0.50213   2.95985   2.3862 
 H                     0.96462   3.1714    1.44699 
 C                    -1.74324  -0.23567   3.69583 
 H                    -0.87249   0.42356   3.63989 
 H                    -2.67191   0.31146   3.52419 
 H                    -1.78227  -0.78524   4.6378 
 C                     3.09996   2.24885   0.08486 
 H                     3.01273   1.54513  -0.75075 
 H                     2.31003   2.99174  -0.07414 
 C                     4.45737   2.94904   0.04029 
 H                     4.60398   3.49258  -0.89828 
 H                     4.55363   3.66675   0.86239 
 H                     5.27544   2.22616   0.14262 
 C                     4.86683  -2.18221  -0.15325 
 H                     5.44586  -2.06986   0.76522 
 H                     5.35105  -2.93841  -0.78068 
 C                     4.70312  -0.86659  -0.91878 
 H                     4.4921   -0.06127  -0.21112 
 H                     5.57979  -0.59161  -1.50906 
 
 ITRead=  0  0  0  0  0  0  0  0  0  0  0  0  0  0  0  0  0  0  0  0
 ITRead=  0  0  0  0  0  0  0  0  0  0  0  0  0  0  0  0  0  0  0  0
 ITRead=  0  0  0  0  0  0  0  0  0  0  0  0  0  0  0  0  0  0  0  0
 ITRead=  0  0  0  0  0  0  0  0  0  0  0  0  0  0  0  0  0
 MicOpt= -1 -1 -1 -1 -1 -1 -1 -1 -1 -1 -1 -1 -1 -1 -1 -1 -1 -1 -1 -1
 MicOpt= -1 -1 -1 -1 -1 -1 -1 -1 -1 -1 -1 -1 -1 -1 -1 -1 -1 -1 -1 -1
 MicOpt= -1 -1 -1 -1 -1 -1 -1 -1 -1 -1 -1 -1 -1 -1 -1 -1 -1 -1 -1 -1
 MicOpt= -1 -1 -1 -1 -1 -1 -1 -1 -1 -1 -1 -1 -1 -1 -1 -1 -1
 NAtoms=     77 NQM=       77 NQMF=       0 NMMI=      0 NMMIF=      0
                NMic=       0 NMicF=      0.
                    Isotopes and Nuclear Properties:
 (Nuclear quadrupole moments (NQMom) in fm**2, nuclear magnetic moments (NMagM)
  in nuclear magnetons)

  Atom         1           2           3           4           5           6           7           8           9          10
 IAtWgt=          12          12          12          12          12          12           1           1           1           1
 AtmWgt=  12.0000000  12.0000000  12.0000000  12.0000000  12.0000000  12.0000000   1.0078250   1.0078250   1.0078250   1.0078250
 NucSpn=           0           0           0           0           0           0           1           1           1           1
 AtZEff=  -0.0000000  -0.0000000  -0.0000000  -0.0000000  -0.0000000  -0.0000000  -0.0000000  -0.0000000  -0.0000000  -0.0000000
 NQMom=    0.0000000   0.0000000   0.0000000   0.0000000   0.0000000   0.0000000   0.0000000   0.0000000   0.0000000   0.0000000
 NMagM=    0.0000000   0.0000000   0.0000000   0.0000000   0.0000000   0.0000000   2.7928460   2.7928460   2.7928460   2.7928460
 AtZNuc=   6.0000000   6.0000000   6.0000000   6.0000000   6.0000000   6.0000000   1.0000000   1.0000000   1.0000000   1.0000000

  Atom        11          12          13          14          15          16          17          18          19          20
 IAtWgt=           1           1           1           1           1           1          14          12          12          12
 AtmWgt=   1.0078250   1.0078250   1.0078250   1.0078250   1.0078250   1.0078250  14.0030740  12.0000000  12.0000000  12.0000000
 NucSpn=           1           1           1           1           1           1           2           0           0           0
 AtZEff=  -0.0000000  -0.0000000  -0.0000000  -0.0000000  -0.0000000  -0.0000000  -0.0000000  -0.0000000  -0.0000000  -0.0000000
 NQMom=    0.0000000   0.0000000   0.0000000   0.0000000   0.0000000   0.0000000   2.0440000   0.0000000   0.0000000   0.0000000
 NMagM=    2.7928460   2.7928460   2.7928460   2.7928460   2.7928460   2.7928460   0.4037610   0.0000000   0.0000000   0.0000000
 AtZNuc=   1.0000000   1.0000000   1.0000000   1.0000000   1.0000000   1.0000000   7.0000000   6.0000000   6.0000000   6.0000000

  Atom        21          22          23          24          25          26          27          28          29          30
 IAtWgt=           1          12           1          12           1           1          14          12           1           1
 AtmWgt=   1.0078250  12.0000000   1.0078250  12.0000000   1.0078250   1.0078250  14.0030740  12.0000000   1.0078250   1.0078250
 NucSpn=           1           0           1           0           1           1           2           0           1           1
 AtZEff=  -0.0000000  -0.0000000  -0.0000000  -0.0000000  -0.0000000  -0.0000000  -0.0000000  -0.0000000  -0.0000000  -0.0000000
 NQMom=    0.0000000   0.0000000   0.0000000   0.0000000   0.0000000   0.0000000   2.0440000   0.0000000   0.0000000   0.0000000
 NMagM=    2.7928460   0.0000000   2.7928460   0.0000000   2.7928460   2.7928460   0.4037610   0.0000000   2.7928460   2.7928460
 AtZNuc=   1.0000000   6.0000000   1.0000000   6.0000000   1.0000000   1.0000000   7.0000000   6.0000000   1.0000000   1.0000000

  Atom        31          32          33          34          35          36          37          38          39          40
 IAtWgt=          12           1           1          14          32          16          16          12          12          12
 AtmWgt=  12.0000000   1.0078250   1.0078250  14.0030740  31.9720718  15.9949146  15.9949146  12.0000000  12.0000000  12.0000000
 NucSpn=           0           1           1           2           0           0           0           0           0           0
 AtZEff=  -0.0000000  -0.0000000  -0.0000000  -0.0000000  -0.0000000  -0.0000000  -0.0000000  -0.0000000  -0.0000000  -0.0000000
 NQMom=    0.0000000   0.0000000   0.0000000   2.0440000   0.0000000   0.0000000   0.0000000   0.0000000   0.0000000   0.0000000
 NMagM=    0.0000000   2.7928460   2.7928460   0.4037610   0.0000000   0.0000000   0.0000000   0.0000000   0.0000000   0.0000000
 AtZNuc=   6.0000000   1.0000000   1.0000000   7.0000000  16.0000000   8.0000000   8.0000000   6.0000000   6.0000000   6.0000000

  Atom        41          42          43          44          45          46          47          48          49          50
 IAtWgt=          12          12          12           1           1           1           1           1          16           1
 AtmWgt=  12.0000000  12.0000000  12.0000000   1.0078250   1.0078250   1.0078250   1.0078250   1.0078250  15.9949146   1.0078250
 NucSpn=           0           0           0           1           1           1           1           1           0           1
 AtZEff=  -0.0000000  -0.0000000  -0.0000000  -0.0000000  -0.0000000  -0.0000000  -0.0000000  -0.0000000  -0.0000000  -0.0000000
 NQMom=    0.0000000   0.0000000   0.0000000   0.0000000   0.0000000   0.0000000   0.0000000   0.0000000   0.0000000   0.0000000
 NMagM=    0.0000000   0.0000000   0.0000000   2.7928460   2.7928460   2.7928460   2.7928460   2.7928460   0.0000000   2.7928460
 AtZNuc=   6.0000000   6.0000000   6.0000000   1.0000000   1.0000000   1.0000000   1.0000000   1.0000000   8.0000000   1.0000000

  Atom        51          52          53          54          55          56          57          58          59          60
 IAtWgt=          12          16          16           1          12           1           1          12           1           1
 AtmWgt=  12.0000000  15.9949146  15.9949146   1.0078250  12.0000000   1.0078250   1.0078250  12.0000000   1.0078250   1.0078250
 NucSpn=           0           0           0           1           0           1           1           0           1           1
 AtZEff=  -0.0000000  -0.0000000  -0.0000000  -0.0000000  -0.0000000  -0.0000000  -0.0000000  -0.0000000  -0.0000000  -0.0000000
 NQMom=    0.0000000   0.0000000   0.0000000   0.0000000   0.0000000   0.0000000   0.0000000   0.0000000   0.0000000   0.0000000
 NMagM=    0.0000000   0.0000000   0.0000000   2.7928460   0.0000000   2.7928460   2.7928460   0.0000000   2.7928460   2.7928460
 AtZNuc=   6.0000000   8.0000000   8.0000000   1.0000000   6.0000000   1.0000000   1.0000000   6.0000000   1.0000000   1.0000000

  Atom        61          62          63          64          65          66          67          68          69          70
 IAtWgt=          12           1           1           1          12           1           1          12           1           1
 AtmWgt=  12.0000000   1.0078250   1.0078250   1.0078250  12.0000000   1.0078250   1.0078250  12.0000000   1.0078250   1.0078250
 NucSpn=           0           1           1           1           0           1           1           0           1           1
 AtZEff=  -0.0000000  -0.0000000  -0.0000000  -0.0000000  -0.0000000  -0.0000000  -0.0000000  -0.0000000  -0.0000000  -0.0000000
 NQMom=    0.0000000   0.0000000   0.0000000   0.0000000   0.0000000   0.0000000   0.0000000   0.0000000   0.0000000   0.0000000
 NMagM=    0.0000000   2.7928460   2.7928460   2.7928460   0.0000000   2.7928460   2.7928460   0.0000000   2.7928460   2.7928460
 AtZNuc=   6.0000000   1.0000000   1.0000000   1.0000000   6.0000000   1.0000000   1.0000000   6.0000000   1.0000000   1.0000000

  Atom        71          72          73          74          75          76          77
 IAtWgt=           1          12           1           1          12           1           1
 AtmWgt=   1.0078250  12.0000000   1.0078250   1.0078250  12.0000000   1.0078250   1.0078250
 NucSpn=           1           0           1           1           0           1           1
 AtZEff=  -0.0000000  -0.0000000  -0.0000000  -0.0000000  -0.0000000  -0.0000000  -0.0000000
 NQMom=    0.0000000   0.0000000   0.0000000   0.0000000   0.0000000   0.0000000   0.0000000
 NMagM=    2.7928460   0.0000000   2.7928460   2.7928460   0.0000000   2.7928460   2.7928460
 AtZNuc=   1.0000000   6.0000000   1.0000000   1.0000000   6.0000000   1.0000000   1.0000000
 Leave Link  101 at Thu Feb  7 16:56:02 2019, MaxMem=   104857600 cpu:               5.1 elap:               0.2
 (Enter /home/xinyan/g16/l103.exe)

 GradGradGradGradGradGradGradGradGradGradGradGradGradGradGradGradGradGrad
 Berny optimization.
 Initialization pass.
 Trust Radius=3.00D-01 FncErr=1.00D-07 GrdErr=1.00D-07 EigMax=2.50D+02 EigMin=1.00D-04
 Number of steps in this run=      2 maximum allowed number of steps=      2.
 GradGradGradGradGradGradGradGradGradGradGradGradGradGradGradGradGradGrad

 Leave Link  103 at Thu Feb  7 16:56:02 2019, MaxMem=   104857600 cpu:               1.6 elap:               0.1
 (Enter /home/xinyan/g16/l202.exe)
 Stoichiometry    C27H41N3O5S
 Framework group  C1[X(C27H41N3O5S)]
 Deg. of freedom   225
 Full point group                 C1      NOp   1
 Largest Abelian subgroup         C1      NOp   1
 Largest concise Abelian subgroup C1      NOp   1
                         Standard orientation:                         
 ---------------------------------------------------------------------
 Center     Atomic      Atomic             Coordinates (Angstroms)
 Number     Number       Type             X           Y           Z
 ---------------------------------------------------------------------
      1          6           0       -4.783297    0.339055   -0.641552
      2          6           0       -4.926120   -0.962972   -1.435380
      3          6           0       -3.575216   -1.398574   -2.016040
      4          6           0       -2.585542   -1.575171   -0.870305
      5          6           0       -2.396301   -0.246436   -0.092586
      6          6           0       -3.744330    0.210812    0.476865
      7          1           0       -3.666415   -2.329540   -2.585896
      8          1           0       -5.309115   -1.755568   -0.779267
      9          1           0       -5.651819   -0.839648   -2.245409
     10          1           0       -4.477111    1.142478   -1.324160
     11          1           0       -5.750615    0.628151   -0.217840
     12          1           0       -2.966288   -2.332030   -0.177496
     13          1           0       -2.075696    0.506987   -0.823641
     14          1           0       -4.089919   -0.508757    1.226469
     15          1           0       -3.595545    1.176043    0.972245
     16          1           0       -3.227920   -0.615385   -2.703425
     17          7           0       -1.244909   -2.041308   -1.281105
     18          6           0       -0.559527   -1.384078   -2.253357
     19          6           0       -0.546344   -2.791368   -0.386682
     20          6           0        0.798329   -1.419607   -2.335356
     21          1           0       -1.154602   -0.800840   -2.945131
     22          6           0        0.812310   -2.851416   -0.386270
     23          1           0       -1.138190   -3.284812    0.376603
     24          6           0        1.550806   -2.059597   -1.305649
     25          1           0        1.287458   -0.875658   -3.131822
     26          1           0        1.298607   -3.404861    0.404511
     27          7           0        2.869831   -1.929158   -1.212700
     28          6           0        3.592530   -2.305301    0.012772
     29          1           0        3.491654   -3.376771    0.206412
     30          1           0        3.174323   -1.724499    0.848624
     31          6           0        3.593711   -0.897530   -1.965549
     32          1           0        3.847472   -1.271275   -2.965144
     33          1           0        2.958630   -0.011651   -2.054337
     34          7           0       -1.299619   -0.307715    0.860515
     35         16           0       -1.376796   -1.136223    2.260659
     36          8           0       -2.563205   -1.997808    2.230319
     37          8           0       -0.080730   -1.777990    2.499727
     38          6           0       -0.644104    2.704119    0.045003
     39          6           0       -0.170227    2.242960   -1.193027
     40          6           0       -0.965877    2.323019   -2.333835
     41          6           0       -2.253466    2.856654   -2.270833
     42          6           0       -2.738978    3.309776   -1.047743
     43          6           0       -1.936045    3.234664    0.090868
     44          1           0        0.802771    1.769181   -1.233189
     45          1           0       -0.571646    1.971399   -3.284368
     46          1           0       -2.868364    2.922981   -3.164216
     47          1           0       -3.739767    3.727473   -0.977559
     48          1           0       -2.322628    3.603847    1.038922
     49          8           0        0.672520    1.585838    1.905564
     50          1           0       -0.306416   -0.061289    0.558451
     51          6           0        1.795127    0.844871    1.260558
     52          8           0        1.375372    0.233894    0.169982
     53          8           0        2.187158   -0.034524    2.299994
     54          1           0        1.480187   -0.704097    2.348956
     55          6           0        3.011154    1.799454    1.115972
     56          1           0        2.988011    2.524437    1.939200
     57          1           0        3.894766    1.175449    1.300238
     58          6           0        0.211696    2.769261    1.313136
     59          1           0       -0.403648    3.255310    2.081338
     60          1           0        1.051751    3.453003    1.121674
     61          6           0       -1.581584    0.094655    3.526868
     62          1           0       -0.722226    0.765031    3.437322
     63          1           0       -2.520452    0.619598    3.341934
     64          1           0       -1.603946   -0.417746    4.490094
     65          6           0        3.190753    2.511608   -0.221687
     66          1           0        3.108258    1.774048   -1.028084
     67          1           0        2.387500    3.234858   -0.402934
     68          6           0        4.536112    3.231161   -0.305761
     69          1           0        4.666162    3.739397   -1.266296
     70          1           0        4.627296    3.982307    0.486505
     71          1           0        5.366711    2.526110   -0.182175
     72          6           0        5.027927   -1.896502   -0.300288
     73          1           0        5.612494   -1.738606    0.607916
     74          1           0        5.519339   -2.669088   -0.901620
     75          6           0        4.836478   -0.615017   -1.115662
     76          1           0        4.618069    0.214202   -0.438501
     77          1           0        5.703697   -0.349600   -1.724004
 ---------------------------------------------------------------------
 Rotational constants (GHZ):           0.1557655           0.1002160           0.0906527
 Leave Link  202 at Thu Feb  7 16:56:02 2019, MaxMem=   104857600 cpu:               2.5 elap:               0.1
 (Enter /home/xinyan/g16/l301.exe)
 Standard basis: 6-31G(d) (6D, 7F)
 Ernie: Thresh=  0.10000D-02 Tol=  0.10000D-05 Strict=F.
 There are   626 symmetry adapted cartesian basis functions of A   symmetry.
 There are   626 symmetry adapted basis functions of A   symmetry.
   626 basis functions,  1196 primitive gaussians,   626 cartesian basis functions
   140 alpha electrons      140 beta electrons
       nuclear repulsion energy      4990.6314264979 Hartrees.
 IExCor= 4336 DFT=T Ex+Corr=M062X ExCW=0 ScaHFX=  0.540000
 ScaDFX=  1.000000  1.000000  1.000000  1.000000 ScalE2=  1.000000  1.000000
 IRadAn=      5 IRanWt=     -1 IRanGd=            0 ICorTp=0 IEmpDi=131
 NAtoms=   77 NActive=   77 NUniq=   77 SFac= 1.00D+00 NAtFMM=   60 NAOKFM=T Big=T
 Integral buffers will be    131072 words long.
 Raffenetti 2 integral format.
 Two-electron integral symmetry is turned on.
 R6Disp:  Grimme-D3 Dispersion energy=       -0.0108278346 Hartrees.
 Nuclear repulsion after empirical dispersion term =     4990.6205986634 Hartrees.
 Leave Link  301 at Thu Feb  7 16:56:02 2019, MaxMem=   104857600 cpu:               3.0 elap:               0.2
 (Enter /home/xinyan/g16/l302.exe)
 NPDir=0 NMtPBC=     1 NCelOv=     1 NCel=       1 NClECP=     1 NCelD=      1
         NCelK=      1 NCelE2=     1 NClLst=     1 CellRange=     0.0.
 One-electron integrals computed using PRISM.
 One-electron integral symmetry used in STVInt
 PrsmSu:  requested number of processors reduced to:  23 ShMem   1 Linda.
 NBasis=   626 RedAO= T EigKep=  4.46D-04  NBF=   626
 NBsUse=   626 1.00D-06 EigRej= -1.00D+00 NBFU=   626
 Precomputing XC quadrature grid using
 IXCGrd= 4 IRadAn=           5 IRanWt=          -1 IRanGd=           0 AccXCQ= 0.00D+00.
 Generated NRdTot=       0 NPtTot=           0 NUsed=           0 NTot=          32
 NSgBfM=   621   621   621   621   621 MxSgAt=    77 MxSgA2=    77.
 Leave Link  302 at Thu Feb  7 16:56:06 2019, MaxMem=   104857600 cpu:              81.7 elap:               3.6
 (Enter /home/xinyan/g16/l303.exe)
 DipDrv:  MaxL=1.
 Leave Link  303 at Thu Feb  7 16:56:06 2019, MaxMem=   104857600 cpu:               6.3 elap:               0.3
 (Enter /home/xinyan/g16/l401.exe)
 ExpMin= 1.17D-01 ExpMax= 2.19D+04 ExpMxC= 3.30D+03 IAcc=3 IRadAn=         5 AccDes= 0.00D+00
 Harris functional with IExCor= 1009 and IRadAn=       5 diagonalized for initial guess.
 HarFok:  IExCor= 1009 AccDes= 0.00D+00 IRadAn=         5 IDoV= 1 UseB2=F ITyADJ=14
 ICtDFT=  3500011 ScaDFX=  1.000000  1.000000  1.000000  1.000000
 FoFCou: FMM=F IPFlag=           0 FMFlag=      100000 FMFlg1=        2001
         NFxFlg=           0 DoJE=T BraDBF=F KetDBF=T FulRan=T
         wScrn=  0.000000 ICntrl=       500 IOpCl=  0 I1Cent=   200000004 NGrid=           0
         NMat0=    1 NMatS0=      1 NMatT0=    0 NMatD0=    1 NMtDS0=    0 NMtDT0=    0
 Petite list used in FoFCou.
 Harris En= -1990.52941251667    
 JPrj=0 DoOrth=F DoCkMO=F.
 Leave Link  401 at Thu Feb  7 16:56:11 2019, MaxMem=   104857600 cpu:             100.2 elap:               4.2
 (Enter /home/xinyan/g16/l502.exe)
 Integral symmetry usage will be decided dynamically.
 Closed shell SCF:
 Using DIIS extrapolation, IDIIS=  1040.
 NGot=   104857600 LenX=   104051656 LenY=   103659154
 Requested convergence on RMS density matrix=1.00D-08 within 128 cycles.
 Requested convergence on MAX density matrix=1.00D-06.
 Requested convergence on             energy=1.00D-06.
 No special actions if energy rises.
 Fock matrices will be formed incrementally for  20 cycles.
 Integral accuracy reduced to 1.0D-05 until final iterations.

 Cycle   1  Pass 0  IDiag  1:
 FoFJK:  IHMeth= 1 ICntrl=       0 DoSepK=F KAlg= 0 I1Cent=           0 FoldK=F
 IRaf= 990000000 NMat=       1 IRICut=       1 DoRegI=T DoRafI=F ISym2E= 0 IDoP0=0 IntGTp=1.
 FoFCou: FMM=T IPFlag=           0 FMFlag=      100000 FMFlg1=        2001
         NFxFlg=           0 DoJE=F BraDBF=F KetDBF=F FulRan=T
         wScrn=  0.000000 ICntrl=         0 IOpCl=  0 I1Cent=           0 NGrid=           0
         NMat0=    1 NMatS0=      1 NMatT0=    0 NMatD0=    1 NMtDS0=    0 NMtDT0=    0
 Symmetry not used in FoFCou.
 FMM levels:  10  Number of levels for PrismC:   9
 E= -1990.30174396471    
 DIIS: error= 2.13D-02 at cycle   1 NSaved=   1.
 NSaved= 1 IEnMin= 1 EnMin= -1990.30174396471     IErMin= 1 ErrMin= 2.13D-02
 ErrMax= 2.13D-02  0.00D+00 EMaxC= 1.00D-01 BMatC= 1.24D+00 BMatP= 1.24D+00
 IDIUse=3 WtCom= 7.87D-01 WtEn= 2.13D-01
 Coeff-Com:  0.100D+01
 Coeff-En:   0.100D+01
 Coeff:      0.100D+01
 Gap=     0.368 Goal=   None    Shift=    0.000
 GapD=    0.368 DampG=1.000 DampE=0.500 DampFc=0.5000 IDamp=-1.
 Damping current iteration by 5.00D-01
 RMSDP=3.43D-03 MaxDP=3.45D-01              OVMax= 1.95D-01

 Cycle   2  Pass 0  IDiag  1:
 RMSU=  1.71D-03    CP:  9.88D-01
 E= -1990.81384494322     Delta-E=       -0.512100978513 Rises=F Damp=T
 DIIS: error= 6.64D-03 at cycle   2 NSaved=   2.
 NSaved= 2 IEnMin= 2 EnMin= -1990.81384494322     IErMin= 2 ErrMin= 6.64D-03
 ErrMax= 6.64D-03  0.00D+00 EMaxC= 1.00D-01 BMatC= 9.27D-02 BMatP= 1.24D+00
 IDIUse=3 WtCom= 9.34D-01 WtEn= 6.64D-02
 Coeff-Com: -0.293D-01 0.103D+01
 Coeff-En:   0.000D+00 0.100D+01
 Coeff:     -0.274D-01 0.103D+01
 Gap=     0.264 Goal=   None    Shift=    0.000
 RMSDP=8.53D-04 MaxDP=7.82D-02 DE=-5.12D-01 OVMax= 1.20D-01

 Cycle   3  Pass 0  IDiag  1:
 RMSU=  8.43D-04    CP:  9.81D-01  9.48D-01
 E= -1991.31810165756     Delta-E=       -0.504256714335 Rises=F Damp=F
 DIIS: error= 6.34D-03 at cycle   3 NSaved=   3.
 NSaved= 3 IEnMin= 3 EnMin= -1991.31810165756     IErMin= 3 ErrMin= 6.34D-03
 ErrMax= 6.34D-03  0.00D+00 EMaxC= 1.00D-01 BMatC= 4.91D-02 BMatP= 9.27D-02
 IDIUse=3 WtCom= 9.37D-01 WtEn= 6.34D-02
 Coeff-Com: -0.715D-01 0.440D+00 0.632D+00
 Coeff-En:   0.000D+00 0.000D+00 0.100D+01
 Coeff:     -0.670D-01 0.412D+00 0.655D+00
 Gap=     0.251 Goal=   None    Shift=    0.000
 RMSDP=5.08D-04 MaxDP=3.82D-02 DE=-5.04D-01 OVMax= 5.90D-02

 Cycle   4  Pass 0  IDiag  1:
 RMSU=  3.37D-04    CP:  9.84D-01  1.05D+00  6.05D-01
 E= -1991.34833137635     Delta-E=       -0.030229718795 Rises=F Damp=F
 DIIS: error= 3.95D-03 at cycle   4 NSaved=   4.
 NSaved= 4 IEnMin= 4 EnMin= -1991.34833137635     IErMin= 4 ErrMin= 3.95D-03
 ErrMax= 3.95D-03  0.00D+00 EMaxC= 1.00D-01 BMatC= 1.18D-02 BMatP= 4.91D-02
 IDIUse=3 WtCom= 9.60D-01 WtEn= 3.95D-02
 Coeff-Com: -0.287D-01 0.921D-01 0.358D+00 0.579D+00
 Coeff-En:   0.000D+00 0.000D+00 0.204D+00 0.796D+00
 Coeff:     -0.276D-01 0.884D-01 0.351D+00 0.588D+00
 Gap=     0.230 Goal=   None    Shift=    0.000
 RMSDP=2.03D-04 MaxDP=1.48D-02 DE=-3.02D-02 OVMax= 2.77D-02

 Cycle   5  Pass 0  IDiag  1:
 RMSU=  8.59D-05    CP:  9.83D-01  1.04D+00  7.33D-01  5.63D-01
 E= -1991.35817304303     Delta-E=       -0.009841666683 Rises=F Damp=F
 DIIS: error= 1.02D-03 at cycle   5 NSaved=   5.
 NSaved= 5 IEnMin= 5 EnMin= -1991.35817304303     IErMin= 5 ErrMin= 1.02D-03
 ErrMax= 1.02D-03  0.00D+00 EMaxC= 1.00D-01 BMatC= 5.77D-04 BMatP= 1.18D-02
 IDIUse=3 WtCom= 9.90D-01 WtEn= 1.02D-02
 Coeff-Com: -0.938D-02 0.215D-01 0.133D+00 0.285D+00 0.570D+00
 Coeff-En:   0.000D+00 0.000D+00 0.000D+00 0.000D+00 0.100D+01
 Coeff:     -0.929D-02 0.213D-01 0.132D+00 0.282D+00 0.575D+00
 Gap=     0.231 Goal=   None    Shift=    0.000
 RMSDP=5.05D-05 MaxDP=3.67D-03 DE=-9.84D-03 OVMax= 8.67D-03

 Cycle   6  Pass 0  IDiag  1:
 RMSU=  2.70D-05    CP:  9.83D-01  1.04D+00  7.32D-01  6.35D-01  5.95D-01
 E= -1991.35867529202     Delta-E=       -0.000502248982 Rises=F Damp=F
 DIIS: error= 3.32D-04 at cycle   6 NSaved=   6.
 NSaved= 6 IEnMin= 6 EnMin= -1991.35867529202     IErMin= 6 ErrMin= 3.32D-04
 ErrMax= 3.32D-04  0.00D+00 EMaxC= 1.00D-01 BMatC= 5.69D-05 BMatP= 5.77D-04
 IDIUse=3 WtCom= 9.97D-01 WtEn= 3.32D-03
 Coeff-Com: -0.185D-02 0.197D-02 0.300D-01 0.827D-01 0.293D+00 0.594D+00
 Coeff-En:   0.000D+00 0.000D+00 0.000D+00 0.000D+00 0.000D+00 0.100D+01
 Coeff:     -0.184D-02 0.196D-02 0.299D-01 0.824D-01 0.292D+00 0.595D+00
 Gap=     0.231 Goal=   None    Shift=    0.000
 RMSDP=1.49D-05 MaxDP=8.99D-04 DE=-5.02D-04 OVMax= 2.37D-03

 Cycle   7  Pass 0  IDiag  1:
 RMSU=  9.38D-06    CP:  9.83D-01  1.04D+00  7.34D-01  6.35D-01  6.78D-01
                    CP:  6.77D-01
 E= -1991.35872909573     Delta-E=       -0.000053803711 Rises=F Damp=F
 DIIS: error= 5.63D-05 at cycle   7 NSaved=   7.
 NSaved= 7 IEnMin= 7 EnMin= -1991.35872909573     IErMin= 7 ErrMin= 5.63D-05
 ErrMax= 5.63D-05  0.00D+00 EMaxC= 1.00D-01 BMatC= 3.92D-06 BMatP= 5.69D-05
 IDIUse=1 WtCom= 1.00D+00 WtEn= 0.00D+00
 Coeff-Com:  0.166D-03-0.132D-02-0.130D-02 0.615D-02 0.718D-01 0.258D+00
 Coeff-Com:  0.667D+00
 Coeff:      0.166D-03-0.132D-02-0.130D-02 0.615D-02 0.718D-01 0.258D+00
 Coeff:      0.667D+00
 Gap=     0.231 Goal=   None    Shift=    0.000
 RMSDP=4.48D-06 MaxDP=2.47D-04 DE=-5.38D-05 OVMax= 5.17D-04

 Initial convergence to 1.0D-05 achieved.  Increase integral accuracy.
 Cycle   8  Pass 1  IDiag  1:
 E= -1991.35890516484     Delta-E=       -0.000176069109 Rises=F Damp=F
 DIIS: error= 2.14D-04 at cycle   1 NSaved=   1.
 NSaved= 1 IEnMin= 1 EnMin= -1991.35890516484     IErMin= 1 ErrMin= 2.14D-04
 ErrMax= 2.14D-04  0.00D+00 EMaxC= 1.00D-01 BMatC= 1.35D-05 BMatP= 1.35D-05
 IDIUse=3 WtCom= 9.98D-01 WtEn= 2.14D-03
 Coeff-Com:  0.100D+01
 Coeff-En:   0.100D+01
 Coeff:      0.100D+01
 Gap=     0.231 Goal=   None    Shift=    0.000
 RMSDP=4.48D-06 MaxDP=2.47D-04 DE=-1.76D-04 OVMax= 4.48D-04

 Cycle   9  Pass 1  IDiag  1:
 RMSU=  7.44D-05    CP:  1.00D+00
 E= -1991.35891735663     Delta-E=       -0.000012191798 Rises=F Damp=F
 DIIS: error= 2.22D-05 at cycle   2 NSaved=   2.
 NSaved= 2 IEnMin= 2 EnMin= -1991.35891735663     IErMin= 2 ErrMin= 2.22D-05
 ErrMax= 2.22D-05  0.00D+00 EMaxC= 1.00D-01 BMatC= 7.93D-07 BMatP= 1.35D-05
 IDIUse=1 WtCom= 1.00D+00 WtEn= 0.00D+00
 Coeff-Com:  0.674D-01 0.933D+00
 Coeff:      0.674D-01 0.933D+00
 Gap=     0.231 Goal=   None    Shift=    0.000
 RMSDP=3.89D-06 MaxDP=2.10D-04 DE=-1.22D-05 OVMax= 3.61D-04

 Cycle  10  Pass 1  IDiag  1:
 RMSU=  3.26D-06    CP:  1.00D+00  1.03D+00
 E= -1991.35891698789     Delta-E=        0.000000368748 Rises=F Damp=F
 DIIS: error= 3.62D-05 at cycle   3 NSaved=   3.
 NSaved= 3 IEnMin= 2 EnMin= -1991.35891735663     IErMin= 2 ErrMin= 2.22D-05
 ErrMax= 3.62D-05  0.00D+00 EMaxC= 1.00D-01 BMatC= 1.27D-06 BMatP= 7.93D-07
 IDIUse=1 WtCom= 1.00D+00 WtEn= 0.00D+00
 Coeff-Com: -0.151D-01 0.565D+00 0.450D+00
 Coeff:     -0.151D-01 0.565D+00 0.450D+00
 Gap=     0.231 Goal=   None    Shift=    0.000
 RMSDP=1.85D-06 MaxDP=1.25D-04 DE= 3.69D-07 OVMax= 2.22D-04

 Cycle  11  Pass 1  IDiag  1:
 RMSU=  6.39D-07    CP:  1.00D+00  1.03D+00  4.78D-01
 E= -1991.35891804815     Delta-E=       -0.000001060267 Rises=F Damp=F
 DIIS: error= 3.93D-06 at cycle   4 NSaved=   4.
 NSaved= 4 IEnMin= 4 EnMin= -1991.35891804815     IErMin= 4 ErrMin= 3.93D-06
 ErrMax= 3.93D-06  0.00D+00 EMaxC= 1.00D-01 BMatC= 1.04D-08 BMatP= 7.93D-07
 IDIUse=1 WtCom= 1.00D+00 WtEn= 0.00D+00
 Coeff-Com: -0.809D-02 0.250D+00 0.210D+00 0.548D+00
 Coeff:     -0.809D-02 0.250D+00 0.210D+00 0.548D+00
 Gap=     0.231 Goal=   None    Shift=    0.000
 RMSDP=2.16D-07 MaxDP=1.09D-05 DE=-1.06D-06 OVMax= 3.50D-05

 Cycle  12  Pass 1  IDiag  1:
 RMSU=  1.93D-07    CP:  1.00D+00  1.03D+00  4.95D-01  8.84D-01
 E= -1991.35891805786     Delta-E=       -0.000000009702 Rises=F Damp=F
 DIIS: error= 1.61D-06 at cycle   5 NSaved=   5.
 NSaved= 5 IEnMin= 5 EnMin= -1991.35891805786     IErMin= 5 ErrMin= 1.61D-06
 ErrMax= 1.61D-06  0.00D+00 EMaxC= 1.00D-01 BMatC= 1.05D-09 BMatP= 1.04D-08
 IDIUse=1 WtCom= 1.00D+00 WtEn= 0.00D+00
 Coeff-Com: -0.735D-03 0.732D-02 0.796D-02 0.223D+00 0.763D+00
 Coeff:     -0.735D-03 0.732D-02 0.796D-02 0.223D+00 0.763D+00
 Gap=     0.231 Goal=   None    Shift=    0.000
 RMSDP=9.04D-08 MaxDP=5.10D-06 DE=-9.70D-09 OVMax= 8.54D-06

 Cycle  13  Pass 1  IDiag  1:
 RMSU=  6.72D-08    CP:  1.00D+00  1.03D+00  4.96D-01  9.63D-01  8.49D-01
 E= -1991.35891805879     Delta-E=       -0.000000000930 Rises=F Damp=F
 DIIS: error= 5.11D-07 at cycle   6 NSaved=   6.
 NSaved= 6 IEnMin= 6 EnMin= -1991.35891805879     IErMin= 6 ErrMin= 5.11D-07
 ErrMax= 5.11D-07  0.00D+00 EMaxC= 1.00D-01 BMatC= 2.67D-10 BMatP= 1.05D-09
 IDIUse=1 WtCom= 1.00D+00 WtEn= 0.00D+00
 Coeff-Com:  0.824D-03-0.340D-01-0.281D-01 0.479D-01 0.424D+00 0.590D+00
 Coeff:      0.824D-03-0.340D-01-0.281D-01 0.479D-01 0.424D+00 0.590D+00
 Gap=     0.231 Goal=   None    Shift=    0.000
 RMSDP=3.61D-08 MaxDP=1.85D-06 DE=-9.30D-10 OVMax= 5.60D-06

 Cycle  14  Pass 1  IDiag  1:
 RMSU=  2.56D-08    CP:  1.00D+00  1.03D+00  4.97D-01  9.83D-01  9.33D-01
                    CP:  7.83D-01
 E= -1991.35891805902     Delta-E=       -0.000000000232 Rises=F Damp=F
 DIIS: error= 1.56D-07 at cycle   7 NSaved=   7.
 NSaved= 7 IEnMin= 7 EnMin= -1991.35891805902     IErMin= 7 ErrMin= 1.56D-07
 ErrMax= 1.56D-07  0.00D+00 EMaxC= 1.00D-01 BMatC= 1.59D-11 BMatP= 2.67D-10
 IDIUse=1 WtCom= 1.00D+00 WtEn= 0.00D+00
 Coeff-Com:  0.405D-03-0.147D-01-0.126D-01 0.278D-02 0.106D+00 0.246D+00
 Coeff-Com:  0.671D+00
 Coeff:      0.405D-03-0.147D-01-0.126D-01 0.278D-02 0.106D+00 0.246D+00
 Coeff:      0.671D+00
 Gap=     0.231 Goal=   None    Shift=    0.000
 RMSDP=9.48D-09 MaxDP=4.75D-07 DE=-2.32D-10 OVMax= 1.18D-06

 SCF Done:  E(RM062X) =  -1991.35891806     A.U. after   14 cycles
            NFock= 14  Conv=0.95D-08     -V/T= 2.0076
 KE= 1.976424125243D+03 PE=-1.463362069494D+04 EE= 5.675217052973D+03
 Leave Link  502 at Thu Feb  7 16:58:43 2019, MaxMem=   104857600 cpu:            3647.6 elap:             152.3
 (Enter /home/xinyan/g16/l601.exe)
 Copying SCF densities to generalized density rwf, IOpCl= 0 IROHF=0.

 **********************************************************************

            Population analysis using the SCF density.

 **********************************************************************

 Orbital symmetries:
       Occupied  (A) (A) (A) (A) (A) (A) (A) (A) (A) (A) (A) (A)
                 (A) (A) (A) (A) (A) (A) (A) (A) (A) (A) (A) (A)
                 (A) (A) (A) (A) (A) (A) (A) (A) (A) (A) (A) (A)
                 (A) (A) (A) (A) (A) (A) (A) (A) (A) (A) (A) (A)
                 (A) (A) (A) (A) (A) (A) (A) (A) (A) (A) (A) (A)
                 (A) (A) (A) (A) (A) (A) (A) (A) (A) (A) (A) (A)
                 (A) (A) (A) (A) (A) (A) (A) (A) (A) (A) (A) (A)
                 (A) (A) (A) (A) (A) (A) (A) (A) (A) (A) (A) (A)
                 (A) (A) (A) (A) (A) (A) (A) (A) (A) (A) (A) (A)
                 (A) (A) (A) (A) (A) (A) (A) (A) (A) (A) (A) (A)
                 (A) (A) (A) (A) (A) (A) (A) (A) (A) (A) (A) (A)
                 (A) (A) (A) (A) (A) (A) (A) (A)
       Virtual   (A) (A) (A) (A) (A) (A) (A) (A) (A) (A) (A) (A)
                 (A) (A) (A) (A) (A) (A) (A) (A) (A) (A) (A) (A)
                 (A) (A) (A) (A) (A) (A) (A) (A) (A) (A) (A) (A)
                 (A) (A) (A) (A) (A) (A) (A) (A) (A) (A) (A) (A)
                 (A) (A) (A) (A) (A) (A) (A) (A) (A) (A) (A) (A)
                 (A) (A) (A) (A) (A) (A) (A) (A) (A) (A) (A) (A)
                 (A) (A) (A) (A) (A) (A) (A) (A) (A) (A) (A) (A)
                 (A) (A) (A) (A) (A) (A) (A) (A) (A) (A) (A) (A)
                 (A) (A) (A) (A) (A) (A) (A) (A) (A) (A) (A) (A)
                 (A) (A) (A) (A) (A) (A) (A) (A) (A) (A) (A) (A)
                 (A) (A) (A) (A) (A) (A) (A) (A) (A) (A) (A) (A)
                 (A) (A) (A) (A) (A) (A) (A) (A) (A) (A) (A) (A)
                 (A) (A) (A) (A) (A) (A) (A) (A) (A) (A) (A) (A)
                 (A) (A) (A) (A) (A) (A) (A) (A) (A) (A) (A) (A)
                 (A) (A) (A) (A) (A) (A) (A) (A) (A) (A) (A) (A)
                 (A) (A) (A) (A) (A) (A) (A) (A) (A) (A) (A) (A)
                 (A) (A) (A) (A) (A) (A) (A) (A) (A) (A) (A) (A)
                 (A) (A) (A) (A) (A) (A) (A) (A) (A) (A) (A) (A)
                 (A) (A) (A) (A) (A) (A) (A) (A) (A) (A) (A) (A)
                 (A) (A) (A) (A) (A) (A) (A) (A) (A) (A) (A) (A)
                 (A) (A) (A) (A) (A) (A) (A) (A) (A) (A) (A) (A)
                 (A) (A) (A) (A) (A) (A) (A) (A) (A) (A) (A) (A)
                 (A) (A) (A) (A) (A) (A) (A) (A) (A) (A) (A) (A)
                 (A) (A) (A) (A) (A) (A) (A) (A) (A) (A) (A) (A)
                 (A) (A) (A) (A) (A) (A) (A) (A) (A) (A) (A) (A)
                 (A) (A) (A) (A) (A) (A) (A) (A) (A) (A) (A) (A)
                 (A) (A) (A) (A) (A) (A) (A) (A) (A) (A) (A) (A)
                 (A) (A) (A) (A) (A) (A) (A) (A) (A) (A) (A) (A)
                 (A) (A) (A) (A) (A) (A) (A) (A) (A) (A) (A) (A)
                 (A) (A) (A) (A) (A) (A) (A) (A) (A) (A) (A) (A)
                 (A) (A) (A) (A) (A) (A) (A) (A) (A) (A) (A) (A)
                 (A) (A) (A) (A) (A) (A) (A) (A) (A) (A) (A) (A)
                 (A) (A) (A) (A) (A) (A) (A) (A) (A) (A) (A) (A)
                 (A) (A) (A) (A) (A) (A) (A) (A) (A) (A) (A) (A)
                 (A) (A) (A) (A) (A) (A) (A) (A) (A) (A) (A) (A)
                 (A) (A) (A) (A) (A) (A) (A) (A) (A) (A) (A) (A)
                 (A) (A) (A) (A) (A) (A) (A) (A) (A) (A) (A) (A)
                 (A) (A) (A) (A) (A) (A) (A) (A) (A) (A) (A) (A)
                 (A) (A) (A) (A) (A) (A) (A) (A) (A) (A) (A) (A)
                 (A) (A) (A) (A) (A) (A) (A) (A) (A) (A) (A) (A)
                 (A) (A) (A) (A) (A) (A)
 The electronic state is 1-A.
 Alpha  occ. eigenvalues --  -90.14059 -19.61679 -19.61665 -19.58788 -19.56745
 Alpha  occ. eigenvalues --  -19.51399 -14.85127 -14.80458 -14.75484 -10.63386
 Alpha  occ. eigenvalues --  -10.62759 -10.62332 -10.62075 -10.60658 -10.59220
 Alpha  occ. eigenvalues --  -10.58700 -10.57927 -10.57884 -10.57067 -10.56869
 Alpha  occ. eigenvalues --  -10.56656 -10.55608 -10.55577 -10.55183 -10.55017
 Alpha  occ. eigenvalues --  -10.54769 -10.54718 -10.54651 -10.54492 -10.54330
 Alpha  occ. eigenvalues --  -10.54254 -10.54203 -10.53090 -10.51671 -10.51571
 Alpha  occ. eigenvalues --  -10.49792  -8.45038  -6.37254  -6.37233  -6.37076
 Alpha  occ. eigenvalues --   -1.21893  -1.13652  -1.13471  -1.10143  -1.09357
 Alpha  occ. eigenvalues --   -1.05909  -1.01596  -0.99410  -0.95683  -0.94941
 Alpha  occ. eigenvalues --   -0.93458  -0.90240  -0.88755  -0.85910  -0.85813
 Alpha  occ. eigenvalues --   -0.84789  -0.84649  -0.84323  -0.83016  -0.82608
 Alpha  occ. eigenvalues --   -0.76642  -0.76369  -0.75831  -0.74398  -0.72708
 Alpha  occ. eigenvalues --   -0.71568  -0.68339  -0.68288  -0.67915  -0.67150
 Alpha  occ. eigenvalues --   -0.66758  -0.65192  -0.64865  -0.63521  -0.60577
 Alpha  occ. eigenvalues --   -0.60407  -0.59798  -0.58846  -0.57833  -0.57551
 Alpha  occ. eigenvalues --   -0.57129  -0.56423  -0.55703  -0.55155  -0.54167
 Alpha  occ. eigenvalues --   -0.53456  -0.52631  -0.52392  -0.52354  -0.51874
 Alpha  occ. eigenvalues --   -0.51522  -0.51084  -0.50946  -0.49843  -0.49595
 Alpha  occ. eigenvalues --   -0.49159  -0.48803  -0.48203  -0.48107  -0.48070
 Alpha  occ. eigenvalues --   -0.47621  -0.47425  -0.46892  -0.46472  -0.46092
 Alpha  occ. eigenvalues --   -0.44924  -0.44666  -0.44084  -0.43883  -0.43248
 Alpha  occ. eigenvalues --   -0.42443  -0.42079  -0.41552  -0.41430  -0.41190
 Alpha  occ. eigenvalues --   -0.40877  -0.40444  -0.40020  -0.39852  -0.39491
 Alpha  occ. eigenvalues --   -0.39246  -0.39041  -0.38443  -0.37880  -0.37580
 Alpha  occ. eigenvalues --   -0.37354  -0.36724  -0.36571  -0.35679  -0.34873
 Alpha  occ. eigenvalues --   -0.34346  -0.33883  -0.31745  -0.30975  -0.29716
 Alpha  occ. eigenvalues --   -0.28886  -0.28556  -0.27575  -0.24997  -0.24529
 Alpha virt. eigenvalues --   -0.01421   0.00486   0.03619   0.03833   0.10195
 Alpha virt. eigenvalues --    0.11059   0.11583   0.12095   0.13218   0.13552
 Alpha virt. eigenvalues --    0.14206   0.14678   0.14814   0.15346   0.15599
 Alpha virt. eigenvalues --    0.16064   0.16846   0.16979   0.17239   0.17576
 Alpha virt. eigenvalues --    0.18003   0.18358   0.18546   0.18852   0.18936
 Alpha virt. eigenvalues --    0.19305   0.19653   0.19913   0.20144   0.20341
 Alpha virt. eigenvalues --    0.20635   0.21028   0.21096   0.21660   0.21740
 Alpha virt. eigenvalues --    0.22266   0.22544   0.22915   0.23462   0.23626
 Alpha virt. eigenvalues --    0.23859   0.24202   0.24445   0.24763   0.25121
 Alpha virt. eigenvalues --    0.25261   0.25645   0.26135   0.26438   0.26876
 Alpha virt. eigenvalues --    0.27164   0.27710   0.27870   0.28624   0.29033
 Alpha virt. eigenvalues --    0.29393   0.29775   0.30037   0.30789   0.30892
 Alpha virt. eigenvalues --    0.31417   0.31848   0.32518   0.32853   0.33161
 Alpha virt. eigenvalues --    0.33770   0.34552   0.35167   0.35574   0.35802
 Alpha virt. eigenvalues --    0.36263   0.37224   0.37787   0.38116   0.38882
 Alpha virt. eigenvalues --    0.39764   0.40283   0.40917   0.42864   0.43250
 Alpha virt. eigenvalues --    0.44549   0.45008   0.46868   0.48267   0.48912
 Alpha virt. eigenvalues --    0.49900   0.51288   0.52765   0.53401   0.54949
 Alpha virt. eigenvalues --    0.55198   0.55374   0.56031   0.56536   0.56938
 Alpha virt. eigenvalues --    0.57512   0.58146   0.58546   0.58759   0.59268
 Alpha virt. eigenvalues --    0.59500   0.60021   0.60353   0.60484   0.60552
 Alpha virt. eigenvalues --    0.61287   0.61437   0.62453   0.62686   0.62874
 Alpha virt. eigenvalues --    0.63851   0.64060   0.64755   0.65221   0.65486
 Alpha virt. eigenvalues --    0.66210   0.66863   0.66920   0.67471   0.67826
 Alpha virt. eigenvalues --    0.68476   0.68994   0.69521   0.69913   0.70722
 Alpha virt. eigenvalues --    0.70969   0.71365   0.71686   0.73183   0.73533
 Alpha virt. eigenvalues --    0.73761   0.74072   0.74711   0.74990   0.75609
 Alpha virt. eigenvalues --    0.76813   0.77405   0.77832   0.78606   0.78949
 Alpha virt. eigenvalues --    0.79465   0.79693   0.80240   0.81165   0.81265
 Alpha virt. eigenvalues --    0.81604   0.82186   0.82712   0.83502   0.84365
 Alpha virt. eigenvalues --    0.84998   0.85579   0.85730   0.86376   0.87348
 Alpha virt. eigenvalues --    0.87608   0.88412   0.88985   0.89508   0.89596
 Alpha virt. eigenvalues --    0.89871   0.90231   0.90562   0.90893   0.91238
 Alpha virt. eigenvalues --    0.91758   0.92304   0.92853   0.93064   0.93276
 Alpha virt. eigenvalues --    0.93691   0.94432   0.94832   0.95063   0.95569
 Alpha virt. eigenvalues --    0.95939   0.96148   0.96501   0.96594   0.97156
 Alpha virt. eigenvalues --    0.97286   0.97952   0.98118   0.98394   0.98448
 Alpha virt. eigenvalues --    0.99180   0.99788   0.99901   1.00505   1.00722
 Alpha virt. eigenvalues --    1.01357   1.01942   1.02117   1.02951   1.03084
 Alpha virt. eigenvalues --    1.03110   1.04331   1.04804   1.04988   1.05512
 Alpha virt. eigenvalues --    1.05859   1.07002   1.07860   1.08127   1.08700
 Alpha virt. eigenvalues --    1.10415   1.10657   1.11655   1.11973   1.12166
 Alpha virt. eigenvalues --    1.13273   1.13674   1.14423   1.15209   1.15427
 Alpha virt. eigenvalues --    1.16479   1.17555   1.17950   1.18766   1.19030
 Alpha virt. eigenvalues --    1.19947   1.21152   1.21544   1.21805   1.22134
 Alpha virt. eigenvalues --    1.22827   1.23449   1.24176   1.24500   1.25786
 Alpha virt. eigenvalues --    1.25945   1.28210   1.29142   1.29588   1.30665
 Alpha virt. eigenvalues --    1.31386   1.31720   1.31910   1.32426   1.33500
 Alpha virt. eigenvalues --    1.34386   1.34782   1.35129   1.36207   1.36923
 Alpha virt. eigenvalues --    1.37689   1.38413   1.39397   1.41152   1.41460
 Alpha virt. eigenvalues --    1.41791   1.42189   1.44218   1.45015   1.45887
 Alpha virt. eigenvalues --    1.47367   1.47915   1.48464   1.49200   1.49696
 Alpha virt. eigenvalues --    1.51032   1.52070   1.52480   1.52823   1.54576
 Alpha virt. eigenvalues --    1.54709   1.55084   1.55963   1.57017   1.57242
 Alpha virt. eigenvalues --    1.57547   1.58533   1.60672   1.61107   1.61818
 Alpha virt. eigenvalues --    1.61944   1.62745   1.63925   1.66012   1.67176
 Alpha virt. eigenvalues --    1.69149   1.69681   1.70658   1.72269   1.72988
 Alpha virt. eigenvalues --    1.74331   1.74735   1.75764   1.77201   1.78085
 Alpha virt. eigenvalues --    1.78526   1.79248   1.80476   1.80685   1.81686
 Alpha virt. eigenvalues --    1.84230   1.84605   1.85200   1.85682   1.86020
 Alpha virt. eigenvalues --    1.86335   1.86811   1.87636   1.88109   1.89135
 Alpha virt. eigenvalues --    1.90010   1.90115   1.90613   1.91190   1.91765
 Alpha virt. eigenvalues --    1.92785   1.93911   1.94076   1.94538   1.94655
 Alpha virt. eigenvalues --    1.95484   1.95627   1.96121   1.96966   1.97724
 Alpha virt. eigenvalues --    1.98341   1.99065   1.99154   2.00006   2.01003
 Alpha virt. eigenvalues --    2.01836   2.02350   2.02464   2.02822   2.03836
 Alpha virt. eigenvalues --    2.04300   2.06181   2.06441   2.06925   2.07510
 Alpha virt. eigenvalues --    2.07672   2.08246   2.08685   2.09241   2.09735
 Alpha virt. eigenvalues --    2.09931   2.10611   2.11837   2.11983   2.12779
 Alpha virt. eigenvalues --    2.12896   2.14014   2.14634   2.15159   2.16168
 Alpha virt. eigenvalues --    2.16352   2.16747   2.17435   2.18619   2.19350
 Alpha virt. eigenvalues --    2.20061   2.20488   2.20638   2.21667   2.22318
 Alpha virt. eigenvalues --    2.23112   2.23262   2.23546   2.23729   2.24624
 Alpha virt. eigenvalues --    2.25578   2.26172   2.26578   2.27491   2.28645
 Alpha virt. eigenvalues --    2.28783   2.30203   2.30867   2.31198   2.32221
 Alpha virt. eigenvalues --    2.32493   2.34253   2.35056   2.35262   2.35658
 Alpha virt. eigenvalues --    2.36063   2.37387   2.37879   2.38562   2.38866
 Alpha virt. eigenvalues --    2.39217   2.40254   2.40985   2.41794   2.42833
 Alpha virt. eigenvalues --    2.43287   2.44690   2.45336   2.46058   2.46998
 Alpha virt. eigenvalues --    2.49687   2.50802   2.51752   2.52215   2.53409
 Alpha virt. eigenvalues --    2.54080   2.54735   2.56472   2.57195   2.59986
 Alpha virt. eigenvalues --    2.60900   2.61829   2.62381   2.62995   2.64200
 Alpha virt. eigenvalues --    2.64729   2.64953   2.65910   2.67301   2.68384
 Alpha virt. eigenvalues --    2.68867   2.69719   2.70738   2.71715   2.72765
 Alpha virt. eigenvalues --    2.73792   2.74458   2.76350   2.76829   2.77362
 Alpha virt. eigenvalues --    2.79518   2.80191   2.80717   2.80933   2.81554
 Alpha virt. eigenvalues --    2.83416   2.85462   2.86276   2.87290   2.88416
 Alpha virt. eigenvalues --    2.89162   2.90931   2.92739   2.93858   2.97138
 Alpha virt. eigenvalues --    2.99810   3.00450   3.03064   3.05277   3.10445
 Alpha virt. eigenvalues --    3.14808   3.16458   3.24022   3.41428   3.42976
 Alpha virt. eigenvalues --    3.97147   4.02130   4.05198   4.09502   4.11135
 Alpha virt. eigenvalues --    4.15986   4.17501   4.18152   4.18645   4.19848
 Alpha virt. eigenvalues --    4.21515   4.23474   4.24594   4.26715   4.27412
 Alpha virt. eigenvalues --    4.30001   4.32826   4.33315   4.34797   4.35290
 Alpha virt. eigenvalues --    4.39599   4.40837   4.41862   4.44153   4.48111
 Alpha virt. eigenvalues --    4.50871   4.56003   4.58172   4.59118   4.62013
 Alpha virt. eigenvalues --    4.64028   4.65856   4.73887   4.75425   4.77221
 Alpha virt. eigenvalues --    4.80491
          Condensed to atoms (all electrons):
 Mulliken charges:
               1
     1  C   -0.306070
     2  C   -0.306893
     3  C   -0.310200
     4  C   -0.059178
     5  C    0.057116
     6  C   -0.311816
     7  H    0.173723
     8  H    0.162838
     9  H    0.165110
    10  H    0.150580
    11  H    0.162919
    12  H    0.208414
    13  H    0.172500
    14  H    0.193580
    15  H    0.163330
    16  H    0.153715
    17  N   -0.432277
    18  C    0.069847
    19  C    0.064477
    20  C   -0.205086
    21  H    0.206982
    22  C   -0.209140
    23  H    0.245859
    24  C    0.450470
    25  H    0.190876
    26  H    0.211764
    27  N   -0.528978
    28  C   -0.175500
    29  H    0.169922
    30  H    0.236251
    31  C   -0.154009
    32  H    0.168286
    33  H    0.200575
    34  N   -0.817251
    35  S    1.253918
    36  O   -0.611789
    37  O   -0.609378
    38  C    0.090601
    39  C   -0.178090
    40  C   -0.188822
    41  C   -0.170533
    42  C   -0.163669
    43  C   -0.212087
    44  H    0.203524
    45  H    0.141186
    46  H    0.154554
    47  H    0.158217
    48  H    0.152150
    49  O   -0.547902
    50  H    0.449765
    51  C    0.727937
    52  O   -0.724460
    53  O   -0.718296
    54  H    0.445771
    55  C   -0.337590
    56  H    0.150360
    57  H    0.148656
    58  C   -0.094595
    59  H    0.141367
    60  H    0.146710
    61  C   -0.662675
    62  H    0.270875
    63  H    0.196311
    64  H    0.217302
    65  C   -0.295822
    66  H    0.141667
    67  H    0.146924
    68  C   -0.475852
    69  H    0.149513
    70  H    0.156200
    71  H    0.143847
    72  C   -0.331867
    73  H    0.187584
    74  H    0.163648
    75  C   -0.344280
    76  H    0.194541
    77  H    0.171844
 Sum of Mulliken charges =  -0.00000
 Mulliken charges with hydrogens summed into heavy atoms:
               1
     1  C    0.007429
     2  C    0.021055
     3  C    0.017239
     4  C    0.149236
     5  C    0.229616
     6  C    0.045094
    17  N   -0.432277
    18  C    0.276829
    19  C    0.310336
    20  C   -0.014210
    22  C    0.002624
    24  C    0.450470
    27  N   -0.528978
    28  C    0.230673
    31  C    0.214852
    34  N   -0.367487
    35  S    1.253918
    36  O   -0.611789
    37  O   -0.609378
    38  C    0.090601
    39  C    0.025434
    40  C   -0.047636
    41  C   -0.015980
    42  C   -0.005452
    43  C   -0.059937
    49  O   -0.547902
    51  C    0.727937
    52  O   -0.724460
    53  O   -0.272526
    55  C   -0.038574
    58  C    0.193483
    61  C    0.021814
    65  C   -0.007231
    68  C   -0.026292
    72  C    0.019364
    75  C    0.022105
 Electronic spatial extent (au):  <R**2>=          14351.9986
 Charge=              0.0000 electrons
 Dipole moment (field-independent basis, Debye):
    X=             -2.1183    Y=             -1.8967    Z=             -6.4852  Tot=              7.0812
 Quadrupole moment (field-independent basis, Debye-Ang):
   XX=           -204.7903   YY=           -223.2554   ZZ=           -219.8582
   XY=            -12.0906   XZ=             -5.2588   YZ=             10.1646
 Traceless Quadrupole moment (field-independent basis, Debye-Ang):
   XX=             11.1777   YY=             -7.2874   ZZ=             -3.8903
   XY=            -12.0906   XZ=             -5.2588   YZ=             10.1646
 Octapole moment (field-independent basis, Debye-Ang**2):
  XXX=             20.1716  YYY=            -48.1796  ZZZ=              7.8990  XYY=             11.2850
  XXY=            -22.8450  XXZ=            -37.0324  XZZ=            -24.4407  YZZ=             12.3698
  YYZ=             18.4927  XYZ=            -21.0607
 Hexadecapole moment (field-independent basis, Debye-Ang**3):
 XXXX=          -9935.3029 YYYY=          -5355.4583 ZZZZ=          -3551.5134 XXXY=           -204.6109
 XXXZ=             -8.5982 YYYX=            -51.0548 YYYZ=             56.7643 ZZZX=           -110.8768
 ZZZY=              0.7350 XXYY=          -2559.6248 XXZZ=          -2327.6496 YYZZ=          -1582.1736
 XXYZ=             51.1204 YYXZ=             52.7346 ZZXY=            -51.5256
 N-N= 4.990620598663D+03 E-N=-1.463362073153D+04  KE= 1.976424125243D+03
 No NMR shielding tensors so no spin-rotation constants.
 Leave Link  601 at Thu Feb  7 16:58:44 2019, MaxMem=   104857600 cpu:              27.5 elap:               1.3
 (Enter /home/xinyan/g16/l701.exe)
 ... and contract with generalized density number  0.
 Compute integral first derivatives.
 R6Disp: Adding Grimme-D3 dispersion energy 1st derivatives to the gradient.
 Leave Link  701 at Thu Feb  7 16:58:45 2019, MaxMem=   104857600 cpu:              21.7 elap:               1.0
 (Enter /home/xinyan/g16/l702.exe)
 L702 exits ... SP integral derivatives will be done elsewhere.
 Leave Link  702 at Thu Feb  7 16:58:45 2019, MaxMem=   104857600 cpu:               1.5 elap:               0.1
 (Enter /home/xinyan/g16/l703.exe)
 Integral derivatives from FoFJK, PRISM(SPDF).
 Compute integral first derivatives, UseDBF=F ICtDFT=           0.
 Calling FoFJK, ICntrl=      2127 FMM=T ISym2X=0 I1Cent= 0 IOpClX= 0 NMat=1 NMatS=1 NMatT=0.
 FoFJK:  IHMeth= 1 ICntrl=    2127 DoSepK=F KAlg= 0 I1Cent=           0 FoldK=F
 IRaf=         0 NMat=       1 IRICut=       1 DoRegI=T DoRafI=F ISym2E= 0 IDoP0=0 IntGTp=1.
 FoFCou: FMM=T IPFlag=           0 FMFlag=      100000 FMFlg1=        2001
         NFxFlg=           0 DoJE=F BraDBF=F KetDBF=F FulRan=T
         wScrn=  0.000000 ICntrl=      2127 IOpCl=  0 I1Cent=           0 NGrid=           0
         NMat0=    1 NMatS0=      1 NMatT0=    0 NMatD0=    1 NMtDS0=    0 NMtDT0=    0
 Symmetry not used in FoFCou.
 FMM levels:  10  Number of levels for PrismC:   9
 Leave Link  703 at Thu Feb  7 16:59:19 2019, MaxMem=   104857600 cpu:             806.6 elap:              33.7
 (Enter /home/xinyan/g16/l716.exe)
 Dipole        =-8.33389480D-01-7.46232929D-01-2.55149140D+00
 ***** Axes restored to original set *****
 -------------------------------------------------------------------
 Center     Atomic                   Forces (Hartrees/Bohr)
 Number     Number              X              Y              Z
 -------------------------------------------------------------------
      1        6           0.000003844   -0.000057890   -0.000061932
      2        6           0.000057479   -0.000021262    0.000024155
      3        6          -0.000001695   -0.000024722   -0.000037446
      4        6           0.000004485    0.000071573    0.000059597
      5        6          -0.000041401    0.000009434   -0.000030416
      6        6          -0.000027574    0.000047694    0.000054022
      7        1           0.000000921   -0.000000816   -0.000010889
      8        1          -0.000002053    0.000003189   -0.000021066
      9        1           0.000007073   -0.000001440   -0.000004881
     10        1          -0.000004678    0.000026292   -0.000037338
     11        1          -0.000004348   -0.000000572   -0.000014201
     12        1          -0.000004442   -0.000051821    0.000037900
     13        1          -0.000004668    0.000004638    0.000006181
     14        1          -0.000001512    0.000004868   -0.000006909
     15        1          -0.000007705    0.000007679   -0.000007027
     16        1           0.000000955   -0.000008294   -0.000005914
     17        7          -0.000000437    0.000010883    0.000003247
     18        6           0.000017741   -0.000030610   -0.000018446
     19        6          -0.000001356    0.000012679   -0.000016974
     20        6          -0.000016277   -0.000018511   -0.000048968
     21        1           0.000012274   -0.000008444   -0.000002065
     22        6           0.000000894   -0.000014167    0.000026398
     23        1           0.000000527    0.000015392    0.000016474
     24        6           0.000019219   -0.000009394    0.000020435
     25        1           0.000002844   -0.000007579   -0.000002456
     26        1           0.000009190    0.000018613    0.000014388
     27        7           0.000010446   -0.000044876    0.000053439
     28        6          -0.000012707    0.000010207   -0.000006790
     29        1           0.000006601    0.000025886    0.000001047
     30        1          -0.000010087    0.000010652   -0.000022503
     31        6           0.000004687    0.000004013   -0.000014209
     32        1          -0.000005591   -0.000009699   -0.000009266
     33        1           0.000014223    0.000005583   -0.000022617
     34        7           0.000015302   -0.000022585   -0.000027882
     35       16          -0.000083429   -0.000015773   -0.000048656
     36        8           0.000019144    0.000007620   -0.000011740
     37        8           0.000021930    0.000024525    0.000000942
     38        6          -0.000039692    0.000070350    0.000127915
     39        6          -0.000174632    0.000087616    0.000040245
     40        6          -0.000066504    0.000033402    0.000196468
     41        6          -0.000084779    0.000012436   -0.000003938
     42        6          -0.000131708    0.000050206    0.000064442
     43        6           0.000037496   -0.000000020    0.000073917
     44        1           0.000298497   -0.000111335   -0.000093816
     45        1           0.000103175   -0.000042976   -0.000274584
     46        1          -0.000013896    0.000013184    0.000010873
     47        1           0.000027064   -0.000008714    0.000017273
     48        1          -0.000013302   -0.000002534    0.000025239
     49        8           0.000076797   -0.000000877   -0.000048225
     50        1          -0.000038887    0.000002298    0.000021822
     51        6           0.000010886   -0.000139334    0.000051889
     52        8           0.000152584    0.000105604    0.000245497
     53        8          -0.000417885   -0.000068394   -0.000185453
     54        1           0.000246057    0.000174560    0.000027779
     55        6           0.000027172    0.000010145   -0.000181177
     56        1           0.000017069    0.000069363    0.000139530
     57        1           0.000040307   -0.000036545   -0.000014543
     58        6          -0.000008500    0.000030938    0.000034291
     59        1           0.000029750   -0.000019542   -0.000031796
     60        1          -0.000025362   -0.000043421    0.000024993
     61        6          -0.000021299    0.000030094    0.000050695
     62        1          -0.000042290   -0.000043772   -0.000012477
     63        1           0.000016501   -0.000004537   -0.000000100
     64        1          -0.000008702    0.000021510   -0.000015014
     65        6          -0.000149722    0.000069906   -0.000144912
     66        1           0.000000190    0.000090975    0.000087716
     67        1           0.000073758   -0.000177932    0.000028013
     68        6           0.000113651   -0.000017567    0.000112426
     69        1          -0.000040534   -0.000021589   -0.000038397
     70        1          -0.000036546   -0.000138484   -0.000098049
     71        1           0.000007941    0.000029689    0.000027647
     72        6          -0.000011306    0.000005473   -0.000014269
     73        1           0.000003808    0.000007598   -0.000020199
     74        1           0.000008375   -0.000006590    0.000005217
     75        6           0.000013507    0.000004336   -0.000032990
     76        1           0.000008154    0.000002475   -0.000010922
     77        1           0.000012992   -0.000010961   -0.000020661
 -------------------------------------------------------------------
 Cartesian Forces:  Max     0.000417885 RMS     0.000068703
 Z-matrix is all fixed cartesians, so copy forces.
 Leave Link  716 at Thu Feb  7 16:59:19 2019, MaxMem=   104857600 cpu:               2.4 elap:               0.1
 (Enter /home/xinyan/g16/l103.exe)

 GradGradGradGradGradGradGradGradGradGradGradGradGradGradGradGradGradGrad
 Berny optimization.
 Search for a local minimum.
 Step number   1 out of a maximum of    2
 All quantities printed in internal units (Hartrees-Bohrs-Radians)
 Second derivative matrix not updated -- first step.
 ITU=  0
     Eigenvalues ---   -0.00000   0.00000   0.00000   0.00000   0.00000
     Eigenvalues ---    0.00000   0.00007   0.00013   0.00018   0.00021
     Eigenvalues ---    0.00037   0.00038   0.00084   0.00096   0.00116
     Eigenvalues ---    0.00136   0.00142   0.00203   0.00234   0.00293
     Eigenvalues ---    0.00385   0.00407   0.00448   0.00496   0.00589
     Eigenvalues ---    0.00602   0.00632   0.00689   0.00707   0.00845
     Eigenvalues ---    0.00961   0.01131   0.01166   0.01453   0.01659
     Eigenvalues ---    0.01684   0.01890   0.01953   0.02041   0.02160
     Eigenvalues ---    0.02295   0.02305   0.02443   0.02540   0.02872
     Eigenvalues ---    0.02950   0.03059   0.03083   0.03218   0.03449
     Eigenvalues ---    0.03558   0.03716   0.03915   0.04201   0.04327
     Eigenvalues ---    0.04362   0.04815   0.04844   0.04886   0.04925
     Eigenvalues ---    0.05023   0.05069   0.05100   0.05111   0.05166
     Eigenvalues ---    0.05191   0.05265   0.05373   0.05473   0.05612
     Eigenvalues ---    0.05645   0.05662   0.05699   0.05745   0.05789
     Eigenvalues ---    0.06012   0.06174   0.06246   0.06486   0.06568
     Eigenvalues ---    0.06841   0.06858   0.06974   0.07032   0.07065
     Eigenvalues ---    0.07170   0.07251   0.07279   0.07331   0.07380
     Eigenvalues ---    0.07658   0.07787   0.07857   0.07966   0.08081
     Eigenvalues ---    0.08461   0.08598   0.08775   0.09034   0.09728
     Eigenvalues ---    0.09772   0.10166   0.10463   0.11265   0.11449
     Eigenvalues ---    0.11829   0.12111   0.12597   0.12864   0.12921
     Eigenvalues ---    0.12938   0.13029   0.13350   0.13652   0.13930
     Eigenvalues ---    0.14128   0.14432   0.14634   0.15565   0.15739
     Eigenvalues ---    0.16048   0.16089   0.16882   0.16925   0.17009
     Eigenvalues ---    0.17231   0.17316   0.17736   0.17872   0.19552
     Eigenvalues ---    0.19678   0.20358   0.20631   0.21550   0.21676
     Eigenvalues ---    0.23034   0.23372   0.23746   0.24784   0.26414
     Eigenvalues ---    0.27472   0.28638   0.29623   0.30091   0.30590
     Eigenvalues ---    0.31433   0.32283   0.34047   0.34817   0.36319
     Eigenvalues ---    0.36759   0.39468   0.39941   0.41242   0.43083
     Eigenvalues ---    0.43607   0.44560   0.48148   0.49057   0.50183
     Eigenvalues ---    0.52845   0.56782   0.57655   0.60211   0.64990
     Eigenvalues ---    0.65358   0.66300   0.67419   0.68301   0.68779
     Eigenvalues ---    0.70511   0.77663   0.78156   0.78296   0.80998
     Eigenvalues ---    0.82937   0.83306   0.85404   0.86915   0.87203
     Eigenvalues ---    0.87785   0.88684   0.90581   0.91311   0.93904
     Eigenvalues ---    0.94470   0.94774   0.95094   0.95561   0.96304
     Eigenvalues ---    0.97763   0.97835   0.99596   1.00277   1.00617
     Eigenvalues ---    1.00741   1.03815   1.04262   1.04637   1.06096
     Eigenvalues ---    1.06242   1.06775   1.07045   1.08917   1.09032
     Eigenvalues ---    1.12633   1.15450   1.15904   1.16540   1.19910
     Eigenvalues ---    1.21272   1.24277   1.25894   1.27569   1.37282
     Eigenvalues ---    1.47373   1.53651   1.56234   1.58382   1.58883
     Eigenvalues ---    1.59673   1.67463   1.73125   1.84113   2.33429
 Eigenvalue     1 is  -2.22D-16 should be greater than     0.000000 Eigenvector:
                          Y71       Y70       Y57       Y68       Y56
   1                    0.13554   0.13554   0.13554   0.13554   0.13554
                          Y69       Y55       Y53       Y65       Y54
   1                    0.13554   0.13554   0.13554   0.13554   0.13554
 Eigenvalue     2 is   5.46D-08 Eigenvector:
                          X45       X46       X40       X41       Y73
   1                    0.16981   0.15476   0.14742   0.13906   0.13732
                          X44       Y46       Y77       Y74       X66
   1                    0.13441  -0.13397   0.13340   0.13129   0.13070
 Eigenvalue     3 is   6.36D-08 Eigenvector:
                          Y46       X54       X53       Z47       Y47
   1                    0.21028  -0.20919  -0.18831  -0.18326   0.18061
                          Y41       Z46       Z42       Y42       Z70
   1                    0.16893  -0.16733  -0.15504   0.15237   0.14813
 Eigenvalue     4 is   1.50D-07 Eigenvector:
                          Z77       Z76       Z54       Z53       Z57
   1                    0.18018   0.17923  -0.17468  -0.17020  -0.16865
                          Z71       Z75       Y64       Z52       Z33
   1                   -0.15927   0.15710  -0.15667  -0.14806   0.14796
 Eigenvalue     5 is   2.47D-07 Eigenvector:
                          Z47       Y46       Y9        Y64       Y47
   1                    0.17889   0.17879  -0.16107   0.15663   0.15090
                          Z42       Y7        Y73       Z46       Y71
   1                    0.14387  -0.14106   0.14069   0.13942  -0.13917
 Eigenvalue     6 is   4.40D-07 Eigenvector:
                          Y69       Z54       Y48       Y59       Y71
   1                    0.26155  -0.24729  -0.23162  -0.22867   0.21007
                          Y45       Z53       Y68       Z70       Y66
   1                    0.19093  -0.18280   0.18090   0.17990   0.17750
 Eigenvalue     7 is   7.19D-05 Eigenvector:
                          X69       X45       X46       X70       X67
   1                    0.27774  -0.24751  -0.23069   0.21589   0.21483
                          Z70       X68       Z69       X40       X41
   1                    0.20991   0.20812   0.20268  -0.18982  -0.18065
 Quadratic step=1.158D+00 exceeds max=3.000D-01 adjusted using Lamda=-3.231D-04.
 Angle between NR and scaled steps=  10.31 degrees.
 Angle between quadratic step and forces=  81.88 degrees.
 Linear search not attempted -- first point.
 B after Tr=    -0.000518    0.000862    0.001786
         Rot=    1.000000   -0.000139    0.000042    0.000019 Ang=  -0.02 deg.
 Variable       Old X    -DE/DX   Delta X   Delta X   Delta X     New X
                                 (Linear)    (Quad)   (Total)
    X1       -9.26705   0.00000   0.00000  -0.00349  -0.00391  -9.27096
    Y1        0.42591  -0.00006   0.00000  -0.00945  -0.00798   0.41793
    Z1       -0.91758  -0.00006   0.00000  -0.03579  -0.03467  -0.95225
    X2       -9.56319   0.00006   0.00000   0.00476   0.00438  -9.55880
    Y2       -1.96872  -0.00002   0.00000  -0.01775  -0.01582  -1.98454
    Z2       -2.51608   0.00002   0.00000  -0.02463  -0.02420  -2.54028
    X3       -7.01434  -0.00000   0.00000   0.00918   0.00886  -7.00548
    Y3       -2.78963  -0.00002   0.00000  -0.01973  -0.01759  -2.80722
    Z3       -3.62429  -0.00004   0.00000  -0.01240  -0.01199  -3.63627
    X4       -5.16880   0.00000   0.00000   0.00291   0.00239  -5.16640
    Y4       -3.23909   0.00007   0.00000  -0.00663  -0.00517  -3.24426
    Z4       -1.45893   0.00006   0.00000  -0.00430  -0.00386  -1.46278
    X5       -4.78388  -0.00004   0.00000  -0.00578  -0.00634  -4.79021
    Y5       -0.79427   0.00001   0.00000   0.00063   0.00165  -0.79262
    Z5        0.11187  -0.00003   0.00000  -0.01342  -0.01226   0.09961
    X6       -7.32645  -0.00003   0.00000  -0.01087  -0.01148  -7.33793
    Y6        0.06826   0.00005   0.00000   0.00313   0.00394   0.07220
    Z6        1.20058   0.00005   0.00000  -0.02682  -0.02563   1.17495
    X7       -7.20541   0.00000   0.00000   0.01511   0.01482  -7.19059
    Y7       -4.50199  -0.00000   0.00000  -0.02541  -0.02295  -4.52494
    Z7       -4.77133  -0.00001   0.00000  -0.00489  -0.00497  -4.77630
    X8      -10.32172  -0.00000   0.00000   0.00276   0.00222 -10.31950
    Y8       -3.50221   0.00000   0.00000  -0.01291  -0.01128  -3.51350
    Z8       -1.34240  -0.00002   0.00000  -0.01967  -0.01973  -1.36214
    X9      -10.91716   0.00001   0.00000   0.00940   0.00916 -10.90799
    Y9       -1.65304  -0.00000   0.00000  -0.02683  -0.02443  -1.67746
    Z9       -4.04749  -0.00000   0.00000  -0.03058  -0.03018  -4.07767
   X10       -8.65287  -0.00000   0.00000  -0.00099  -0.00126  -8.65412
   Y10        1.98419   0.00003   0.00000  -0.01474  -0.01295   1.97125
   Z10       -2.14165  -0.00004   0.00000  -0.04145  -0.03985  -2.18149
   X11      -11.09298  -0.00000   0.00000  -0.00698  -0.00745 -11.10043
   Y11        0.97005  -0.00000   0.00000  -0.00749  -0.00617   0.96389
   Z11       -0.11078  -0.00001   0.00000  -0.04501  -0.04389  -0.15467
   X12       -5.92261  -0.00000   0.00000   0.00135   0.00067  -5.92194
   Y12       -4.70791  -0.00005   0.00000  -0.00206  -0.00092  -4.70883
   Z12       -0.21326   0.00004   0.00000   0.00044   0.00041  -0.21284
   X13       -4.14317  -0.00000   0.00000  -0.00136  -0.00175  -4.14492
   Y13        0.67278   0.00000   0.00000  -0.00385  -0.00249   0.67029
   Z13       -1.20719   0.00001   0.00000  -0.01624  -0.01462  -1.22181
   X14       -8.01365  -0.00000   0.00000  -0.01425  -0.01503  -8.02868
   Y14       -1.33549   0.00000   0.00000   0.00883   0.00929  -1.32620
   Z14        2.55682  -0.00001   0.00000  -0.02264  -0.02190   2.53492
   X15       -7.02430  -0.00001   0.00000  -0.01664  -0.01728  -7.04158
   Y15        1.84908   0.00001   0.00000   0.00831   0.00883   1.85791
   Z15        2.21045  -0.00001   0.00000  -0.03418  -0.03247   2.17798
   X16       -6.32302   0.00000   0.00000   0.01104   0.01088  -6.31214
   Y16       -1.27046  -0.00001   0.00000  -0.02470  -0.02225  -1.29271
   Z16       -4.85826  -0.00001   0.00000  -0.01748  -0.01658  -4.87484
   X17       -2.64310  -0.00000   0.00000   0.00583   0.00534  -2.63776
   Y17       -4.13000   0.00001   0.00000  -0.00822  -0.00663  -4.13663
   Z17       -2.24885   0.00000   0.00000   0.00618   0.00659  -2.24226
   X18       -1.31209   0.00002   0.00000   0.00417   0.00389  -1.30820
   Y18       -2.83786  -0.00003   0.00000  -0.02382  -0.02179  -2.85965
   Z18       -4.02493  -0.00002   0.00000  -0.00646  -0.00558  -4.03051
   X19       -1.36079  -0.00000   0.00000   0.00784   0.00716  -1.35364
   Y19       -5.63441   0.00001   0.00000   0.00905   0.01012  -5.62428
   Z19       -0.60539  -0.00002   0.00000   0.02042   0.02053  -0.58487
   X20        1.25374  -0.00002   0.00000   0.00409   0.00382   1.25755
   Y20       -2.94083  -0.00002   0.00000  -0.02398  -0.02201  -2.96284
   Z20       -4.16154  -0.00005   0.00000  -0.00742  -0.00636  -4.16789
   X21       -2.40728   0.00001   0.00000   0.00282   0.00268  -2.40460
   Y21       -1.66672  -0.00001   0.00000  -0.03677  -0.03434  -1.70106
   Z21       -5.29664  -0.00000   0.00000  -0.01719  -0.01608  -5.31271
   X22        1.20444   0.00000   0.00000   0.00804   0.00735   1.21179
   Y22       -5.78984  -0.00001   0.00000   0.01120   0.01218  -5.77766
   Z22       -0.58822   0.00003   0.00000   0.02081   0.02109  -0.56712
   X23       -2.50665   0.00000   0.00000   0.00918   0.00834  -2.49830
   Y23       -6.60463   0.00002   0.00000   0.02166   0.02238  -6.58225
   Z23        0.78981   0.00002   0.00000   0.03030   0.03004   0.81985
   X24        2.63900   0.00002   0.00000   0.00624   0.00575   2.64476
   Y24       -4.24918  -0.00001   0.00000  -0.00527  -0.00388  -4.25306
   Z24       -2.25357   0.00002   0.00000   0.00390   0.00472  -2.24885
   X25        2.20760   0.00000   0.00000   0.00251   0.00240   2.21000
   Y25       -1.86960  -0.00001   0.00000  -0.03760  -0.03525  -1.90485
   Z25       -5.61719  -0.00000   0.00000  -0.01848  -0.01704  -5.63423
   X26        2.09336   0.00001   0.00000   0.00967   0.00882   2.10218
   Y26       -6.90874   0.00002   0.00000   0.02631   0.02684  -6.88191
   Z26        0.87099   0.00001   0.00000   0.03140   0.03145   0.90244
   X27        5.13359   0.00001   0.00000   0.00667   0.00618   5.13977
   Y27       -4.05065  -0.00004   0.00000  -0.00419  -0.00295  -4.05360
   Z27       -2.04803   0.00005   0.00000  -0.00214  -0.00105  -2.04908
   X28        6.46734  -0.00001   0.00000   0.01040   0.00968   6.47702
   Y28       -4.87453   0.00001   0.00000   0.01868   0.01923  -4.85530
   Z28        0.24886  -0.00001   0.00000   0.00369   0.00467   0.25353
   X29        6.24107   0.00001   0.00000   0.00857   0.00775   6.24881
   Y29       -6.90878   0.00003   0.00000   0.02201   0.02248  -6.88630
   Z29        0.53277   0.00000   0.00000   0.02569   0.02609   0.55886
   X30        5.68091  -0.00001   0.00000   0.01481   0.01400   5.69491
   Y30       -3.82736   0.00001   0.00000   0.03682   0.03695  -3.79041
   Z30        1.86412  -0.00002   0.00000  -0.00597  -0.00475   1.85937
   X31        6.54505   0.00000   0.00000   0.00576   0.00545   6.55050
   Y31       -2.06919   0.00000   0.00000  -0.01915  -0.01758  -2.08678
   Z31       -3.38123  -0.00001   0.00000  -0.02559  -0.02383  -3.40506
   X32        7.02976  -0.00001   0.00000   0.00027   0.00010   7.02986
   Y32       -2.70815  -0.00001   0.00000  -0.03916  -0.03708  -2.74523
   Z32       -5.29271  -0.00001   0.00000  -0.02029  -0.01868  -5.31138
   X33        5.37344   0.00001   0.00000   0.00776   0.00752   5.38096
   Y33       -0.37039   0.00001   0.00000  -0.01871  -0.01706  -0.38745
   Z33       -3.49237  -0.00002   0.00000  -0.04013  -0.03800  -3.53037
   X34       -2.72946   0.00002   0.00000  -0.01362  -0.01434  -2.74380
   Y34       -1.01495  -0.00002   0.00000   0.00807   0.00850  -1.00645
   Z34        1.92378  -0.00003   0.00000  -0.00378  -0.00250   1.92127
   X35       -2.92361  -0.00008   0.00000  -0.02198  -0.02298  -2.94659
   Y35       -2.68118  -0.00002   0.00000   0.01020   0.00992  -2.67126
   Z35        4.50433  -0.00005   0.00000  -0.00305  -0.00225   4.50208
   X36       -5.19083   0.00002   0.00000  -0.01742  -0.01847  -5.20930
   Y36       -4.26889   0.00001   0.00000   0.00456   0.00441  -4.26448
   Z36        4.36434  -0.00001   0.00000  -0.01236  -0.01220   4.35214
   X37       -0.49823   0.00002   0.00000  -0.02077  -0.02185  -0.52008
   Y37       -3.95076   0.00002   0.00000   0.01652   0.01603  -3.93472
   Z37        4.92765   0.00000   0.00000   0.00914   0.00979   4.93744
   X38       -1.38613  -0.00004   0.00000   0.00444   0.00404  -1.38209
   Y38        4.71192   0.00007   0.00000   0.01217   0.01290   4.72482
   Z38        0.61936   0.00013   0.00000   0.02394   0.02693   0.64629
   X39       -0.48422  -0.00017   0.00000  -0.00436  -0.00458  -0.48881
   Y39        3.91890   0.00009   0.00000   0.02718   0.02854   3.94744
   Z39       -1.74548   0.00004   0.00000   0.01511   0.01795  -1.72753
   X40       -1.96618  -0.00007   0.00000  -0.01876  -0.01879  -1.98498
   Y40        4.17972   0.00003   0.00000   0.02752   0.02953   4.20925
   Z40       -3.90578   0.00020   0.00000   0.02475   0.02754  -3.87824
   X41       -4.38384  -0.00008   0.00000  -0.02448  -0.02449  -4.40833
   Y41        5.22235   0.00001   0.00000   0.01240   0.01446   5.23681
   Z41       -3.76670  -0.00000   0.00000   0.04336   0.04623  -3.72047
   X42       -5.30773  -0.00013   0.00000  -0.01542  -0.01560  -5.32333
   Y42        6.00168   0.00005   0.00000  -0.00234  -0.00089   6.00078
   Z42       -1.43084   0.00006   0.00000   0.05201   0.05501  -1.37583
   X43       -3.81182   0.00004   0.00000  -0.00100  -0.00136  -3.81319
   Y43        5.75013  -0.00000   0.00000  -0.00215  -0.00136   5.74878
   Z43        0.72579   0.00007   0.00000   0.04216   0.04522   0.77101
   X44        1.34048   0.00030   0.00000   0.00174   0.00149   1.34197
   Y44        2.99729  -0.00011   0.00000   0.03885   0.04018   3.03747
   Z44       -1.84180  -0.00009   0.00000  -0.00058   0.00216  -1.83964
   X45       -1.21621   0.00010   0.00000  -0.02526  -0.02516  -1.24137
   Y45        3.57453  -0.00004   0.00000   0.04036   0.04286   3.61739
   Z45       -5.72081  -0.00027   0.00000   0.01678   0.01947  -5.70133
   X46       -5.52881  -0.00001   0.00000  -0.03554  -0.03540  -5.56421
   Y46        5.43321   0.00001   0.00000   0.01272   0.01530   5.44851
   Z46       -5.45806   0.00001   0.00000   0.05085   0.05368  -5.40438
   X47       -7.18714   0.00003   0.00000  -0.01918  -0.01934  -7.20648
   Y47        6.81602  -0.00001   0.00000  -0.01384  -0.01237   6.80364
   Z47       -1.28246   0.00002   0.00000   0.06623   0.06930  -1.21316
   X48       -4.54678  -0.00001   0.00000   0.00576   0.00526  -4.54151
   Y48        6.38843  -0.00000   0.00000  -0.01368  -0.01337   6.37506
   Z48        2.53756   0.00003   0.00000   0.04899   0.05217   2.58973
   X49        1.03676   0.00008   0.00000   0.01767   0.01690   1.05366
   Y49        2.42115  -0.00000   0.00000   0.01262   0.01231   2.43346
   Z49        4.06901  -0.00005   0.00000   0.01621   0.01876   4.08778
   X50       -0.84042  -0.00004   0.00000  -0.01212  -0.01277  -0.85319
   Y50       -0.55790   0.00000   0.00000   0.01080   0.01131  -0.54659
   Z50        1.38713   0.00002   0.00000   0.00424   0.00580   1.39293
   X51        3.14607   0.00001   0.00000   0.00957   0.00886   3.15493
   Y51        1.03557  -0.00014   0.00000   0.00371   0.00367   1.03924
   Z51        2.81295   0.00005   0.00000   0.01282   0.01516   2.82811
   X52        2.35256   0.00015   0.00000   0.00029  -0.00029   2.35226
   Y52       -0.02366   0.00011   0.00000   0.00054   0.00112  -0.02254
   Z52        0.70158   0.00025   0.00000   0.01846   0.02044   0.72201
   X53        3.84289  -0.00042   0.00000   0.00874   0.00779   3.85068
   Y53       -0.71435  -0.00007   0.00000   0.00638   0.00579  -0.70857
   Z53        4.71583  -0.00019   0.00000   0.01481   0.01672   4.73255
   X54        2.48603   0.00025   0.00000   0.00571   0.00472   2.49075
   Y54       -1.96029   0.00017   0.00000   0.01069   0.01013  -1.95016
   Z54        4.74731   0.00003   0.00000   0.02191   0.02336   4.77067
   X55        5.47497   0.00003   0.00000   0.01485   0.01422   5.48919
   Y55        2.81099   0.00001   0.00000  -0.00474  -0.00482   2.80617
   Z55        2.63006  -0.00018   0.00000  -0.00021   0.00282   2.63289
   X56        5.43956   0.00002   0.00000   0.02482   0.02409   5.46365
   Y56        4.11909   0.00007   0.00000   0.00083   0.00031   4.11940
   Z56        4.23835   0.00014   0.00000  -0.00394  -0.00055   4.23781
   X57        7.12251   0.00004   0.00000   0.01184   0.01113   7.13364
   Y57        1.59179  -0.00004   0.00000  -0.00950  -0.00973   1.58207
   Z57        2.94489  -0.00001   0.00000  -0.00201   0.00082   2.94572
   X58        0.21176  -0.00001   0.00000   0.01755   0.01695   0.22871
   Y58        4.71388   0.00003   0.00000   0.01219   0.01220   4.72608
   Z58        3.03186   0.00003   0.00000   0.01533   0.01845   3.05030
   X59       -0.94889   0.00003   0.00000   0.02621   0.02552  -0.92337
   Y59        5.59331  -0.00002   0.00000   0.01616   0.01580   5.60910
   Z59        4.50926  -0.00003   0.00000   0.01956   0.02283   4.53209
   X60        1.82287  -0.00003   0.00000   0.01815   0.01763   1.84049
   Y60        5.99308  -0.00004   0.00000   0.00898   0.00901   6.00208
   Z60        2.73441   0.00002   0.00000   0.00597   0.00958   2.74399
   X61       -3.29425  -0.00002   0.00000  -0.03844  -0.03956  -3.33381
   Y61       -0.44535   0.00003   0.00000   0.01099   0.01003  -0.43532
   Z61        6.98411   0.00005   0.00000  -0.00615  -0.00476   6.97934
   X62       -1.64877  -0.00004   0.00000  -0.04044  -0.04151  -1.69028
   Y62        0.80041  -0.00004   0.00000   0.01393   0.01295   0.81336
   Z62        6.87840  -0.00001   0.00000   0.00041   0.00228   6.88068
   X63       -5.04918   0.00002   0.00000  -0.03890  -0.03995  -5.08913
   Y63        0.58857  -0.00000   0.00000   0.00728   0.00648   0.59505
   Z63        6.65975  -0.00000   0.00000  -0.01495  -0.01342   6.64633
   X64       -3.36800  -0.00001   0.00000  -0.04444  -0.04575  -3.41375
   Y64       -1.48389   0.00002   0.00000   0.01215   0.01071  -1.47318
   Z64        8.76417  -0.00002   0.00000  -0.00578  -0.00469   8.75948
   X65        5.85808  -0.00015   0.00000   0.01098   0.01061   5.86869
   Y65        4.24971   0.00007   0.00000  -0.01554  -0.01494   4.23477
   Z65        0.16036  -0.00014   0.00000  -0.00683  -0.00337   0.15699
   X66        5.69323   0.00000   0.00000   0.00227   0.00198   5.69521
   Y66        2.91987   0.00009   0.00000  -0.02088  -0.01984   2.90003
   Z66       -1.41871   0.00009   0.00000  -0.00092   0.00216  -1.41655
   X67        4.36532   0.00007   0.00000   0.01380   0.01351   4.37883
   Y67        5.65357  -0.00018   0.00000  -0.01341  -0.01267   5.64090
   Z67       -0.14010   0.00003   0.00000  -0.00745  -0.00373  -0.14383
   X68        8.42321   0.00011   0.00000   0.01480   0.01448   8.43769
   Y68        5.57288  -0.00002   0.00000  -0.02396  -0.02343   5.54945
   Z68        0.07614   0.00011   0.00000  -0.01937  -0.01533   0.06081
   X69        8.70026  -0.00004   0.00000   0.01265   0.01252   8.71278
   Y69        6.60002  -0.00002   0.00000  -0.03274  -0.03172   6.56830
   Z69       -1.69750  -0.00004   0.00000  -0.02484  -0.02049  -1.71799
   X70        8.60511  -0.00004   0.00000   0.02195   0.02155   8.62667
   Y70        6.92915  -0.00014   0.00000  -0.01801  -0.01792   6.91124
   Z70        1.62968  -0.00010   0.00000  -0.02602  -0.02158   1.60810
   X71        9.96914   0.00001   0.00000   0.01162   0.01124   9.98038
   Y71        4.20683   0.00003   0.00000  -0.02708  -0.02666   4.18017
   Z71        0.26951   0.00003   0.00000  -0.01667  -0.01288   0.25664
   X72        9.19698  -0.00001   0.00000   0.01020   0.00955   9.20653
   Y72       -4.12378   0.00001   0.00000   0.00945   0.01005  -4.11373
   Z72       -0.28960  -0.00001   0.00000  -0.01037  -0.00895  -0.29855
   X73       10.29118   0.00000   0.00000   0.01441   0.01363  10.30481
   Y73       -3.91147   0.00001   0.00000   0.02635   0.02643  -3.88504
   Z73        1.44606  -0.00002   0.00000  -0.01514  -0.01357   1.43249
   X74       10.11202   0.00001   0.00000   0.00570   0.00510  10.11712
   Y74       -5.55279  -0.00001   0.00000  -0.00439  -0.00350  -5.55629
   Z74       -1.47527   0.00001   0.00000   0.00281   0.00391  -1.47136
   X75        8.88761   0.00001   0.00000   0.01055   0.01012   8.89773
   Y75       -1.63762   0.00000   0.00000  -0.00541  -0.00439  -1.64201
   Z75       -1.73624  -0.00003   0.00000  -0.03599  -0.03391  -1.77016
   X76        8.48884   0.00001   0.00000   0.01632   0.01583   8.50467
   Y76       -0.11578   0.00000   0.00000   0.00932   0.00999  -0.10579
   Z76       -0.39896  -0.00001   0.00000  -0.05102  -0.04855  -0.44751
   X77       10.54427   0.00001   0.00000   0.00867   0.00835  10.55263
   Y77       -1.11798  -0.00001   0.00000  -0.01989  -0.01862  -1.13660
   Z77       -2.85171  -0.00002   0.00000  -0.04558  -0.04322  -2.89493
         Item               Value     Threshold  Converged?
 Maximum Force            0.000418     0.000450     YES
 RMS     Force            0.000069     0.000300     YES
 Maximum Displacement     0.069302     0.001800     NO 
 RMS     Displacement     0.019708     0.001200     NO 
 Predicted change in Energy=-3.961035D-05
 GradGradGradGradGradGradGradGradGradGradGradGradGradGradGradGradGradGrad

 Leave Link  103 at Thu Feb  7 16:59:20 2019, MaxMem=   104857600 cpu:              21.0 elap:               0.9
 (Enter /home/xinyan/g16/l9999.exe)
 1\1\GINC-TSE4\Force\RM062X\6-31G(d)\C27H41N3O5S1\STEVETSE\07-Feb-2019\
 0\\#p M062X/6-31G* em=gd3 force int=ultrafine\\Title\\0,1\C,-4.90391,0
 .22538,-0.48556\C,-5.06062,-1.0418,-1.33145\C,-3.71183,-1.47621,-1.917
 89\C,-2.73521,-1.71405,-0.77203\C,-2.53152,-0.42031,0.0592\C,-3.87699,
 0.03612,0.63532\H,-3.81294,-2.38235,-2.52488\H,-5.46202,-1.85329,-0.71
 037\H,-5.77711,-0.87475,-2.14184\H,-4.5789,1.04999,-1.13331\H,-5.87015
 ,0.51333,-0.05862\H,-3.13411,-2.49132,-0.11285\H,-2.19247,0.35602,-0.6
 3882\H,-4.24064,-0.70671,1.35301\H,-3.7171,0.97849,1.16972\H,-3.346,-0
 .6723,-2.57088\N,-1.39867,-2.1855,-1.19004\C,-0.69433,-1.50173,-2.1299
 \C,-0.7201,-2.9816,-0.32036\C,0.66345,-1.55622,-2.20219\H,-1.27388,-0.
 88199,-2.80286\C,0.63736,-3.06385,-0.31127\H,-1.32646,-3.49502,0.41795
 \C,1.3965,-2.24857,-1.19254\H,1.16821,-0.98935,-2.97249\H,1.10776,-3.6
 5595,0.46091\N,2.71658,-2.14351,-1.08377\C,3.42237,-2.57949,0.13169\H,
 3.30263,-3.65597,0.28193\H,3.00621,-2.02535,0.98645\C,3.46349,-1.09497
 ,-1.78927\H,3.71999,-1.43309,-2.80078\H,2.8435,-0.196,-1.84808\N,-1.44
 437,-0.53709,1.01802\S,-1.54711,-1.41882,2.38359\O,-2.74687,-2.259,2.3
 0951\O,-0.26365,-2.09065,2.6076\C,-0.73351,2.49344,0.32775\C,-0.25624,
 2.07379,-0.92367\C,-1.04046,2.21181,-2.06685\C,-2.31983,2.76355,-1.993
 25\C,-2.80873,3.17595,-0.75717\C,-2.01713,3.04284,0.38407\H,0.70935,1.
 5861,-0.97464\H,-0.64359,1.89156,-3.02732\H,-2.92572,2.87513,-2.88828\
 H,-3.80327,3.60688,-0.67865\H,-2.40605,3.38061,1.34282\O,0.54863,1.281
 22,2.15323\H,-0.44473,-0.29523,0.73404\C,1.66483,0.548,1.48855\O,1.244
 92,-0.01252,0.37126\O,2.03357,-0.37802,2.49551\H,1.31555,-1.03734,2.51
 217\C,2.89723,1.48751,1.39177\H,2.87849,2.17973,2.24284\H,3.76907,0.84
 234,1.55837\C,0.11206,2.49448,1.60439\H,-0.50213,2.95985,2.3862\H,0.96
 462,3.1714,1.44699\C,-1.74324,-0.23567,3.69583\H,-0.87249,0.42356,3.63
 989\H,-2.67191,0.31146,3.52419\H,-1.78227,-0.78524,4.6378\C,3.09996,2.
 24885,0.08486\H,3.01273,1.54513,-0.75075\H,2.31003,2.99174,-0.07414\C,
 4.45737,2.94904,0.04029\H,4.60398,3.49258,-0.89828\H,4.55363,3.66675,0
 .86239\H,5.27544,2.22616,0.14262\C,4.86683,-2.18221,-0.15325\H,5.44586
 ,-2.06986,0.76522\H,5.35105,-2.93841,-0.78068\C,4.70312,-0.86659,-0.91
 878\H,4.4921,-0.06127,-0.21112\H,5.57979,-0.59161,-1.50906\\Version=ES
 64L-G16RevA.03\State=1-A\HF=-1991.3589181\RMSD=9.476e-09\RMSF=6.870e-0
 5\Dipole=-0.8228204,-0.6312424,-2.5857319\Quadrupole=8.0841907,-5.7172
 008,-2.3669899,-9.1182106,-4.0546797,7.4288102\PG=C01 [X(C27H41N3O5S1)
 ]\\@


 ALL SCIENCE IS EITHER PHYSICS, OR STAMP COLLECTING.
   --ERNEST RUTHERFORD, 1871-1937.
 Job cpu time:       0 days  1 hours 18 minutes 53.7 seconds.
 Elapsed time:       0 days  0 hours  3 minutes 18.4 seconds.
 File lengths (MBytes):  RWF=    216 Int=      0 D2E=      0 Chk=     25 Scr=      1
 Normal termination of Gaussian 16 at Thu Feb  7 16:59:20 2019.
