 Entering Gaussian System, Link 0=g16
 Input=C27N3H41SO5-72.gjf
 Output=C27N3H41SO5-72.log
 Initial command:
 /home/xinyan/g16/l1.exe "/local/home/tmp/Gau-29707.inp" -scrdir="/local/home/tmp/"
 Entering Link 1 = /home/xinyan/g16/l1.exe PID=     29708.
  
 Copyright (c) 1988,1990,1992,1993,1995,1998,2003,2009,2016,
            Gaussian, Inc.  All Rights Reserved.
  
 This is part of the Gaussian(R) 16 program.  It is based on
 the Gaussian(R) 09 system (copyright 2009, Gaussian, Inc.),
 the Gaussian(R) 03 system (copyright 2003, Gaussian, Inc.),
 the Gaussian(R) 98 system (copyright 1998, Gaussian, Inc.),
 the Gaussian(R) 94 system (copyright 1995, Gaussian, Inc.),
 the Gaussian 92(TM) system (copyright 1992, Gaussian, Inc.),
 the Gaussian 90(TM) system (copyright 1990, Gaussian, Inc.),
 the Gaussian 88(TM) system (copyright 1988, Gaussian, Inc.),
 the Gaussian 86(TM) system (copyright 1986, Carnegie Mellon
 University), and the Gaussian 82(TM) system (copyright 1983,
 Carnegie Mellon University). Gaussian is a federally registered
 trademark of Gaussian, Inc.
  
 This software contains proprietary and confidential information,
 including trade secrets, belonging to Gaussian, Inc.
  
 This software is provided under written license and may be
 used, copied, transmitted, or stored only in accord with that
 written license.
  
 The following legend is applicable only to US Government
 contracts under FAR:
  
                    RESTRICTED RIGHTS LEGEND
  
 Use, reproduction and disclosure by the US Government is
 subject to restrictions as set forth in subparagraphs (a)
 and (c) of the Commercial Computer Software - Restricted
 Rights clause in FAR 52.227-19.
  
 Gaussian, Inc.
 340 Quinnipiac St., Bldg. 40, Wallingford CT 06492
  
  
 ---------------------------------------------------------------
 Warning -- This program may not be used in any manner that
 competes with the business of Gaussian, Inc. or will provide
 assistance to any competitor of Gaussian, Inc.  The licensee
 of this program is prohibited from giving any competitor of
 Gaussian, Inc. access to this program.  By using this program,
 the user acknowledges that Gaussian, Inc. is engaged in the
 business of creating and licensing software in the field of
 computational chemistry and represents and warrants to the
 licensee that it is not a competitor of Gaussian, Inc. and that
 it will not use this program in any manner prohibited above.
 ---------------------------------------------------------------
  

 Cite this work as:
 Gaussian 16, Revision A.03,
 M. J. Frisch, G. W. Trucks, H. B. Schlegel, G. E. Scuseria, 
 M. A. Robb, J. R. Cheeseman, G. Scalmani, V. Barone, 
 G. A. Petersson, H. Nakatsuji, X. Li, M. Caricato, A. V. Marenich, 
 J. Bloino, B. G. Janesko, R. Gomperts, B. Mennucci, H. P. Hratchian, 
 J. V. Ortiz, A. F. Izmaylov, J. L. Sonnenberg, D. Williams-Young, 
 F. Ding, F. Lipparini, F. Egidi, J. Goings, B. Peng, A. Petrone, 
 T. Henderson, D. Ranasinghe, V. G. Zakrzewski, J. Gao, N. Rega, 
 G. Zheng, W. Liang, M. Hada, M. Ehara, K. Toyota, R. Fukuda, 
 J. Hasegawa, M. Ishida, T. Nakajima, Y. Honda, O. Kitao, H. Nakai, 
 T. Vreven, K. Throssell, J. A. Montgomery, Jr., J. E. Peralta, 
 F. Ogliaro, M. J. Bearpark, J. J. Heyd, E. N. Brothers, K. N. Kudin, 
 V. N. Staroverov, T. A. Keith, R. Kobayashi, J. Normand, 
 K. Raghavachari, A. P. Rendell, J. C. Burant, S. S. Iyengar, 
 J. Tomasi, M. Cossi, J. M. Millam, M. Klene, C. Adamo, R. Cammi, 
 J. W. Ochterski, R. L. Martin, K. Morokuma, O. Farkas, 
 J. B. Foresman, and D. J. Fox, Gaussian, Inc., Wallingford CT, 2016.
 
 ******************************************
 Gaussian 16:  ES64L-G16RevA.03 25-Dec-2016
                 7-Feb-2019 
 ******************************************
 %nproc=24
 Will use up to   24 processors via shared memory.
 ------------------------------------------
 #p M062X/6-31G* em=gd3 force int=ultrafine
 ------------------------------------------
 1/10=7,30=1,38=1/1,3;
 2/12=2,17=6,18=5,40=1/2;
 3/5=1,6=6,7=1,11=2,25=1,30=1,71=1,74=-55,75=-5,124=31/1,2,3;
 4//1;
 5/5=2,38=5/2;
 6/7=2,8=2,9=2,10=2,28=1/1;
 7/29=1/1,2,3,16;
 1/10=7,30=1/3;
 99//99;
 Leave Link    1 at Thu Feb  7 12:33:43 2019, MaxMem=           0 cpu:               2.5 elap:               0.1
 (Enter /home/xinyan/g16/l101.exe)
 -----
 Title
 -----
 Symbolic Z-matrix:
 Charge =  0 Multiplicity = 1
 C                    -4.94721   0.23807  -0.43194 
 C                    -5.11834  -1.04306  -1.25394 
 C                    -3.77909  -1.4911   -1.85128 
 C                    -2.78322  -1.71042  -0.71778 
 C                    -2.57268  -0.40628   0.09129 
 C                    -3.90733   0.06341   0.67988 
 H                    -3.88991  -2.40806  -2.43979 
 H                    -5.51399  -1.84249  -0.61376 
 H                    -5.84508  -0.88824  -2.0576 
 H                    -4.62652   1.05066  -1.09752 
 H                    -5.90744   0.5368    0.00095 
 H                    -3.16728  -2.48156  -0.04254 
 H                    -2.24338   0.36081  -0.62122 
 H                    -4.26332  -0.66508   1.41572 
 H                    -3.73596   1.01427   1.19614 
 H                    -3.42114  -0.70056  -2.52454 
 N                    -1.45257  -2.18072  -1.15557 
 C                    -0.75854  -1.48441  -2.09554 
 C                    -0.76511  -2.99624  -0.31249 
 C                     0.59672  -1.54818  -2.19357 
 H                    -1.34447  -0.84379  -2.74275 
 C                     0.59087  -3.09994  -0.33862 
 H                    -1.3602   -3.50946   0.43505 
 C                     1.34376  -2.28013  -1.22242 
 H                     1.09376  -0.96544  -2.95745 
 H                     1.06948  -3.71283   0.41181 
 N                     2.66705  -2.20433  -1.14711 
 C                     3.39038  -2.72005   0.02533 
 H                     3.26328  -3.80276   0.11198 
 H                     2.99637  -2.21207   0.91764 
 C                     3.41552  -1.11808  -1.79842 
 H                     3.6824   -1.40859  -2.82217 
 H                     2.79582  -0.21764  -1.8047 
 N                    -1.4716   -0.50449   1.03805 
 S                    -1.51441  -1.38799   2.41378 
 O                    -2.74179  -2.18821   2.39135 
 O                    -0.23972  -2.09209   2.56435 
 C                    -0.6797    2.4211    0.2016 
 C                    -0.17936   1.92371  -1.01168 
 C                    -0.92463   2.03394  -2.18481 
 C                    -2.18336   2.63462  -2.18059 
 C                    -2.69159   3.1302   -0.98236 
 C                    -1.94216   3.02284   0.18939 
 H                     0.77105   1.39901  -1.00013 
 H                    -0.51063   1.65213  -3.11614 
 H                    -2.7567    2.72298  -3.09932 
 H                    -3.66865   3.605    -0.95854 
 H                    -2.3483    3.42026   1.11754 
 O                     0.57492   1.21573   2.04679 
 H                    -0.5069   -0.24402   0.74673 
 C                     1.78326   0.53817   1.44757 
 O                     1.46829  -0.02675   0.30871 
 O                     2.11216  -0.37897   2.47641 
 H                     1.41598  -1.05899   2.43493 
 C                     2.95379   1.5532    1.45262 
 H                     2.82561   2.23105   2.30692 
 H                     3.86194   0.97636   1.66954 
 C                     0.11169   2.42517   1.51407 
 H                    -0.55803   2.84247   2.27831 
 H                     0.93793   3.14504   1.41345 
 C                    -1.60474  -0.20157   3.73398 
 H                    -0.71655   0.42897   3.63377 
 H                    -2.52446   0.37356   3.61479 
 H                    -1.60922  -0.75563   4.67423 
 C                     3.17438   2.35138   0.17013 
 H                     3.40132   1.66188  -0.65176 
 H                     2.26199   2.87517  -0.13461 
 C                     4.30545   3.36608   0.33209 
 H                     4.49195   3.9227   -0.59151 
 H                     4.06354   4.09141   1.11714 
 H                     5.23844   2.87046   0.6236 
 C                     4.83063  -2.30779  -0.25494 
 H                     5.42876  -2.2719    0.65727 
 H                     5.29847  -3.01071  -0.95337 
 C                     4.64442  -0.93546  -0.90416 
 H                     4.39663  -0.206    -0.12826 
 H                     5.51727  -0.58656  -1.45996 
 
 ITRead=  0  0  0  0  0  0  0  0  0  0  0  0  0  0  0  0  0  0  0  0
 ITRead=  0  0  0  0  0  0  0  0  0  0  0  0  0  0  0  0  0  0  0  0
 ITRead=  0  0  0  0  0  0  0  0  0  0  0  0  0  0  0  0  0  0  0  0
 ITRead=  0  0  0  0  0  0  0  0  0  0  0  0  0  0  0  0  0
 MicOpt= -1 -1 -1 -1 -1 -1 -1 -1 -1 -1 -1 -1 -1 -1 -1 -1 -1 -1 -1 -1
 MicOpt= -1 -1 -1 -1 -1 -1 -1 -1 -1 -1 -1 -1 -1 -1 -1 -1 -1 -1 -1 -1
 MicOpt= -1 -1 -1 -1 -1 -1 -1 -1 -1 -1 -1 -1 -1 -1 -1 -1 -1 -1 -1 -1
 MicOpt= -1 -1 -1 -1 -1 -1 -1 -1 -1 -1 -1 -1 -1 -1 -1 -1 -1
 NAtoms=     77 NQM=       77 NQMF=       0 NMMI=      0 NMMIF=      0
                NMic=       0 NMicF=      0.
                    Isotopes and Nuclear Properties:
 (Nuclear quadrupole moments (NQMom) in fm**2, nuclear magnetic moments (NMagM)
  in nuclear magnetons)

  Atom         1           2           3           4           5           6           7           8           9          10
 IAtWgt=          12          12          12          12          12          12           1           1           1           1
 AtmWgt=  12.0000000  12.0000000  12.0000000  12.0000000  12.0000000  12.0000000   1.0078250   1.0078250   1.0078250   1.0078250
 NucSpn=           0           0           0           0           0           0           1           1           1           1
 AtZEff=  -0.0000000  -0.0000000  -0.0000000  -0.0000000  -0.0000000  -0.0000000  -0.0000000  -0.0000000  -0.0000000  -0.0000000
 NQMom=    0.0000000   0.0000000   0.0000000   0.0000000   0.0000000   0.0000000   0.0000000   0.0000000   0.0000000   0.0000000
 NMagM=    0.0000000   0.0000000   0.0000000   0.0000000   0.0000000   0.0000000   2.7928460   2.7928460   2.7928460   2.7928460
 AtZNuc=   6.0000000   6.0000000   6.0000000   6.0000000   6.0000000   6.0000000   1.0000000   1.0000000   1.0000000   1.0000000

  Atom        11          12          13          14          15          16          17          18          19          20
 IAtWgt=           1           1           1           1           1           1          14          12          12          12
 AtmWgt=   1.0078250   1.0078250   1.0078250   1.0078250   1.0078250   1.0078250  14.0030740  12.0000000  12.0000000  12.0000000
 NucSpn=           1           1           1           1           1           1           2           0           0           0
 AtZEff=  -0.0000000  -0.0000000  -0.0000000  -0.0000000  -0.0000000  -0.0000000  -0.0000000  -0.0000000  -0.0000000  -0.0000000
 NQMom=    0.0000000   0.0000000   0.0000000   0.0000000   0.0000000   0.0000000   2.0440000   0.0000000   0.0000000   0.0000000
 NMagM=    2.7928460   2.7928460   2.7928460   2.7928460   2.7928460   2.7928460   0.4037610   0.0000000   0.0000000   0.0000000
 AtZNuc=   1.0000000   1.0000000   1.0000000   1.0000000   1.0000000   1.0000000   7.0000000   6.0000000   6.0000000   6.0000000

  Atom        21          22          23          24          25          26          27          28          29          30
 IAtWgt=           1          12           1          12           1           1          14          12           1           1
 AtmWgt=   1.0078250  12.0000000   1.0078250  12.0000000   1.0078250   1.0078250  14.0030740  12.0000000   1.0078250   1.0078250
 NucSpn=           1           0           1           0           1           1           2           0           1           1
 AtZEff=  -0.0000000  -0.0000000  -0.0000000  -0.0000000  -0.0000000  -0.0000000  -0.0000000  -0.0000000  -0.0000000  -0.0000000
 NQMom=    0.0000000   0.0000000   0.0000000   0.0000000   0.0000000   0.0000000   2.0440000   0.0000000   0.0000000   0.0000000
 NMagM=    2.7928460   0.0000000   2.7928460   0.0000000   2.7928460   2.7928460   0.4037610   0.0000000   2.7928460   2.7928460
 AtZNuc=   1.0000000   6.0000000   1.0000000   6.0000000   1.0000000   1.0000000   7.0000000   6.0000000   1.0000000   1.0000000

  Atom        31          32          33          34          35          36          37          38          39          40
 IAtWgt=          12           1           1          14          32          16          16          12          12          12
 AtmWgt=  12.0000000   1.0078250   1.0078250  14.0030740  31.9720718  15.9949146  15.9949146  12.0000000  12.0000000  12.0000000
 NucSpn=           0           1           1           2           0           0           0           0           0           0
 AtZEff=  -0.0000000  -0.0000000  -0.0000000  -0.0000000  -0.0000000  -0.0000000  -0.0000000  -0.0000000  -0.0000000  -0.0000000
 NQMom=    0.0000000   0.0000000   0.0000000   2.0440000   0.0000000   0.0000000   0.0000000   0.0000000   0.0000000   0.0000000
 NMagM=    0.0000000   2.7928460   2.7928460   0.4037610   0.0000000   0.0000000   0.0000000   0.0000000   0.0000000   0.0000000
 AtZNuc=   6.0000000   1.0000000   1.0000000   7.0000000  16.0000000   8.0000000   8.0000000   6.0000000   6.0000000   6.0000000

  Atom        41          42          43          44          45          46          47          48          49          50
 IAtWgt=          12          12          12           1           1           1           1           1          16           1
 AtmWgt=  12.0000000  12.0000000  12.0000000   1.0078250   1.0078250   1.0078250   1.0078250   1.0078250  15.9949146   1.0078250
 NucSpn=           0           0           0           1           1           1           1           1           0           1
 AtZEff=  -0.0000000  -0.0000000  -0.0000000  -0.0000000  -0.0000000  -0.0000000  -0.0000000  -0.0000000  -0.0000000  -0.0000000
 NQMom=    0.0000000   0.0000000   0.0000000   0.0000000   0.0000000   0.0000000   0.0000000   0.0000000   0.0000000   0.0000000
 NMagM=    0.0000000   0.0000000   0.0000000   2.7928460   2.7928460   2.7928460   2.7928460   2.7928460   0.0000000   2.7928460
 AtZNuc=   6.0000000   6.0000000   6.0000000   1.0000000   1.0000000   1.0000000   1.0000000   1.0000000   8.0000000   1.0000000

  Atom        51          52          53          54          55          56          57          58          59          60
 IAtWgt=          12          16          16           1          12           1           1          12           1           1
 AtmWgt=  12.0000000  15.9949146  15.9949146   1.0078250  12.0000000   1.0078250   1.0078250  12.0000000   1.0078250   1.0078250
 NucSpn=           0           0           0           1           0           1           1           0           1           1
 AtZEff=  -0.0000000  -0.0000000  -0.0000000  -0.0000000  -0.0000000  -0.0000000  -0.0000000  -0.0000000  -0.0000000  -0.0000000
 NQMom=    0.0000000   0.0000000   0.0000000   0.0000000   0.0000000   0.0000000   0.0000000   0.0000000   0.0000000   0.0000000
 NMagM=    0.0000000   0.0000000   0.0000000   2.7928460   0.0000000   2.7928460   2.7928460   0.0000000   2.7928460   2.7928460
 AtZNuc=   6.0000000   8.0000000   8.0000000   1.0000000   6.0000000   1.0000000   1.0000000   6.0000000   1.0000000   1.0000000

  Atom        61          62          63          64          65          66          67          68          69          70
 IAtWgt=          12           1           1           1          12           1           1          12           1           1
 AtmWgt=  12.0000000   1.0078250   1.0078250   1.0078250  12.0000000   1.0078250   1.0078250  12.0000000   1.0078250   1.0078250
 NucSpn=           0           1           1           1           0           1           1           0           1           1
 AtZEff=  -0.0000000  -0.0000000  -0.0000000  -0.0000000  -0.0000000  -0.0000000  -0.0000000  -0.0000000  -0.0000000  -0.0000000
 NQMom=    0.0000000   0.0000000   0.0000000   0.0000000   0.0000000   0.0000000   0.0000000   0.0000000   0.0000000   0.0000000
 NMagM=    0.0000000   2.7928460   2.7928460   2.7928460   0.0000000   2.7928460   2.7928460   0.0000000   2.7928460   2.7928460
 AtZNuc=   6.0000000   1.0000000   1.0000000   1.0000000   6.0000000   1.0000000   1.0000000   6.0000000   1.0000000   1.0000000

  Atom        71          72          73          74          75          76          77
 IAtWgt=           1          12           1           1          12           1           1
 AtmWgt=   1.0078250  12.0000000   1.0078250   1.0078250  12.0000000   1.0078250   1.0078250
 NucSpn=           1           0           1           1           0           1           1
 AtZEff=  -0.0000000  -0.0000000  -0.0000000  -0.0000000  -0.0000000  -0.0000000  -0.0000000
 NQMom=    0.0000000   0.0000000   0.0000000   0.0000000   0.0000000   0.0000000   0.0000000
 NMagM=    2.7928460   0.0000000   2.7928460   2.7928460   0.0000000   2.7928460   2.7928460
 AtZNuc=   1.0000000   6.0000000   1.0000000   1.0000000   6.0000000   1.0000000   1.0000000
 Leave Link  101 at Thu Feb  7 12:33:43 2019, MaxMem=   104857600 cpu:               5.8 elap:               0.3
 (Enter /home/xinyan/g16/l103.exe)

 GradGradGradGradGradGradGradGradGradGradGradGradGradGradGradGradGradGrad
 Berny optimization.
 Initialization pass.
 Trust Radius=3.00D-01 FncErr=1.00D-07 GrdErr=1.00D-07 EigMax=2.50D+02 EigMin=1.00D-04
 Number of steps in this run=      2 maximum allowed number of steps=      2.
 GradGradGradGradGradGradGradGradGradGradGradGradGradGradGradGradGradGrad

 Leave Link  103 at Thu Feb  7 12:33:43 2019, MaxMem=   104857600 cpu:               1.6 elap:               0.1
 (Enter /home/xinyan/g16/l202.exe)
 Stoichiometry    C27H41N3O5S
 Framework group  C1[X(C27H41N3O5S)]
 Deg. of freedom   225
 Full point group                 C1      NOp   1
 Largest Abelian subgroup         C1      NOp   1
 Largest concise Abelian subgroup C1      NOp   1
                         Standard orientation:                         
 ---------------------------------------------------------------------
 Center     Atomic      Atomic             Coordinates (Angstroms)
 Number     Number       Type             X           Y           Z
 ---------------------------------------------------------------------
      1          6           0       -4.831637    0.469632   -0.529823
      2          6           0       -5.026978   -0.845782   -1.289948
      3          6           0       -3.702517   -1.329938   -1.892061
      4          6           0       -2.686221   -1.505488   -0.769116
      5          6           0       -2.451581   -0.167955   -0.023695
      6          6           0       -3.771474    0.337403    0.568617
      7          1           0       -3.830672   -2.271530   -2.436508
      8          1           0       -5.415245   -1.612787   -0.607006
      9          1           0       -5.768200   -0.721844   -2.085699
     10          1           0       -4.518723    1.249193   -1.237291
     11          1           0       -5.781319    0.794487   -0.092504
     12          1           0       -3.062036   -2.242745   -0.052651
     13          1           0       -2.131265    0.563985   -0.776156
     14          1           0       -4.117771   -0.354736    1.343154
     15          1           0       -3.583969    1.309177    1.038216
     16          1           0       -3.352643   -0.573022   -2.606922
     17          7           0       -1.367398   -2.004664   -1.210705
     18          6           0       -0.687309   -1.356297   -2.194152
     19          6           0       -0.668939   -2.786565   -0.345115
     20          6           0        0.665348   -1.434308   -2.315140
     21          1           0       -1.281576   -0.741075   -2.858183
     22          6           0        0.685580   -2.901246   -0.392508
     23          1           0       -1.252671   -3.261383    0.436004
     24          6           0        1.426404   -2.127418   -1.326533
     25          1           0        1.151181   -0.890057   -3.113830
     26          1           0        1.174736   -3.483353    0.375427
     27          7           0        2.751370   -2.057996   -1.280054
     28          6           0        3.494030   -2.525901   -0.099668
     29          1           0        3.361663   -3.602678    0.038004
     30          1           0        3.120734   -1.975552    0.776272
     31          6           0        3.494015   -1.007547   -1.993765
     32          1           0        3.739053   -1.345614   -3.008335
     33          1           0        2.880127   -0.103786   -2.028671
     34          7           0       -1.332949   -0.231663    0.905272
     35         16           0       -1.354684   -1.052249    2.319911
     36          8           0       -2.587401   -1.843673    2.356992
     37          8           0       -0.081871   -1.758192    2.477566
     38          6           0       -0.538628    2.647608   -0.076911
     39          6           0       -0.065200    2.092669   -1.275949
     40          6           0       -0.832422    2.155632   -2.438368
     41          6           0       -2.086934    2.765086   -2.437072
     42          6           0       -2.568555    3.317600   -1.252833
     43          6           0       -1.797182    3.257412   -0.092001
     44          1           0        0.881853    1.562079   -1.259009
     45          1           0       -0.439087    1.729427   -3.359338
     46          1           0       -2.677455    2.816351   -3.347702
     47          1           0       -3.541886    3.800123   -1.231691
     48          1           0       -2.182621    3.699010    0.824941
     49          8           0        0.743851    1.517047    1.796267
     50          1           0       -0.372439    0.008421    0.584119
     51          6           0        1.935914    0.804481    1.205104
     52          8           0        1.595216    0.191381    0.099041
     53          8           0        2.278847   -0.067983    2.267665
     54          1           0        1.577623   -0.744070    2.270144
     55          6           0        3.112839    1.810130    1.142091
     56          1           0        3.005673    2.526524    1.967339
     57          1           0        4.021300    1.236971    1.367310
     58          6           0        0.278152    2.704739    1.218658
     59          1           0       -0.373872    3.160774    1.976038
     60          1           0        1.106901    3.413311    1.069967
     61          6           0       -1.411667    0.192805    3.586905
     62          1           0       -0.521549    0.811705    3.441455
     63          1           0       -2.329806    0.768722    3.459598
     64          1           0       -1.401428   -0.318489    4.551035
     65          6           0        3.313581    2.548365   -0.178985
     66          1           0        3.520042    1.821063   -0.973228
     67          1           0        2.398831    3.064622   -0.489452
     68          6           0        4.454105    3.561008   -0.084505
     69          1           0        4.626187    4.074275   -1.035604
     70          1           0        4.232191    4.322560    0.671617
     71          1           0        5.389374    3.072149    0.211086
     72          6           0        4.931183   -2.137166   -0.425714
     73          1           0        5.547163   -2.064783    0.472341
     74          1           0        5.380808   -2.874100   -1.100653
     75          6           0        4.741229   -0.794003   -1.132312
     76          1           0        4.513286   -0.028692   -0.385402
     77          1           0        5.605334   -0.476769   -1.719848
 ---------------------------------------------------------------------
 Rotational constants (GHZ):           0.1536739           0.1001758           0.0904696
 Leave Link  202 at Thu Feb  7 12:33:44 2019, MaxMem=   104857600 cpu:               2.5 elap:               0.1
 (Enter /home/xinyan/g16/l301.exe)
 Standard basis: 6-31G(d) (6D, 7F)
 Ernie: Thresh=  0.10000D-02 Tol=  0.10000D-05 Strict=F.
 There are   626 symmetry adapted cartesian basis functions of A   symmetry.
 There are   626 symmetry adapted basis functions of A   symmetry.
   626 basis functions,  1196 primitive gaussians,   626 cartesian basis functions
   140 alpha electrons      140 beta electrons
       nuclear repulsion energy      4982.3908681900 Hartrees.
 IExCor= 4336 DFT=T Ex+Corr=M062X ExCW=0 ScaHFX=  0.540000
 ScaDFX=  1.000000  1.000000  1.000000  1.000000 ScalE2=  1.000000  1.000000
 IRadAn=      5 IRanWt=     -1 IRanGd=            0 ICorTp=0 IEmpDi=131
 NAtoms=   77 NActive=   77 NUniq=   77 SFac= 1.00D+00 NAtFMM=   60 NAOKFM=T Big=T
 Integral buffers will be    131072 words long.
 Raffenetti 2 integral format.
 Two-electron integral symmetry is turned on.
 R6Disp:  Grimme-D3 Dispersion energy=       -0.0107879485 Hartrees.
 Nuclear repulsion after empirical dispersion term =     4982.3800802415 Hartrees.
 Leave Link  301 at Thu Feb  7 12:33:44 2019, MaxMem=   104857600 cpu:               3.0 elap:               0.2
 (Enter /home/xinyan/g16/l302.exe)
 NPDir=0 NMtPBC=     1 NCelOv=     1 NCel=       1 NClECP=     1 NCelD=      1
         NCelK=      1 NCelE2=     1 NClLst=     1 CellRange=     0.0.
 One-electron integrals computed using PRISM.
 One-electron integral symmetry used in STVInt
 PrsmSu:  requested number of processors reduced to:  23 ShMem   1 Linda.
 NBasis=   626 RedAO= T EigKep=  4.41D-04  NBF=   626
 NBsUse=   626 1.00D-06 EigRej= -1.00D+00 NBFU=   626
 Precomputing XC quadrature grid using
 IXCGrd= 4 IRadAn=           5 IRanWt=          -1 IRanGd=           0 AccXCQ= 0.00D+00.
 Generated NRdTot=       0 NPtTot=           0 NUsed=           0 NTot=          32
 NSgBfM=   621   621   621   621   621 MxSgAt=    77 MxSgA2=    77.
 Leave Link  302 at Thu Feb  7 12:33:47 2019, MaxMem=   104857600 cpu:              83.6 elap:               3.7
 (Enter /home/xinyan/g16/l303.exe)
 DipDrv:  MaxL=1.
 Leave Link  303 at Thu Feb  7 12:33:48 2019, MaxMem=   104857600 cpu:               5.1 elap:               0.3
 (Enter /home/xinyan/g16/l401.exe)
 ExpMin= 1.17D-01 ExpMax= 2.19D+04 ExpMxC= 3.30D+03 IAcc=3 IRadAn=         5 AccDes= 0.00D+00
 Harris functional with IExCor= 1009 and IRadAn=       5 diagonalized for initial guess.
 HarFok:  IExCor= 1009 AccDes= 0.00D+00 IRadAn=         5 IDoV= 1 UseB2=F ITyADJ=14
 ICtDFT=  3500011 ScaDFX=  1.000000  1.000000  1.000000  1.000000
 FoFCou: FMM=F IPFlag=           0 FMFlag=      100000 FMFlg1=        2001
         NFxFlg=           0 DoJE=T BraDBF=F KetDBF=T FulRan=T
         wScrn=  0.000000 ICntrl=       500 IOpCl=  0 I1Cent=   200000004 NGrid=           0
         NMat0=    1 NMatS0=      1 NMatT0=    0 NMatD0=    1 NMtDS0=    0 NMtDT0=    0
 Petite list used in FoFCou.
 Harris En= -1990.53151157422    
 JPrj=0 DoOrth=F DoCkMO=F.
 Leave Link  401 at Thu Feb  7 12:33:52 2019, MaxMem=   104857600 cpu:              98.0 elap:               4.1
 (Enter /home/xinyan/g16/l502.exe)
 Integral symmetry usage will be decided dynamically.
 Closed shell SCF:
 Using DIIS extrapolation, IDIIS=  1040.
 NGot=   104857600 LenX=   104051656 LenY=   103659154
 Requested convergence on RMS density matrix=1.00D-08 within 128 cycles.
 Requested convergence on MAX density matrix=1.00D-06.
 Requested convergence on             energy=1.00D-06.
 No special actions if energy rises.
 Fock matrices will be formed incrementally for  20 cycles.
 Integral accuracy reduced to 1.0D-05 until final iterations.

 Cycle   1  Pass 0  IDiag  1:
 FoFJK:  IHMeth= 1 ICntrl=       0 DoSepK=F KAlg= 0 I1Cent=           0 FoldK=F
 IRaf= 990000000 NMat=       1 IRICut=       1 DoRegI=T DoRafI=F ISym2E= 0 IDoP0=0 IntGTp=1.
 FoFCou: FMM=T IPFlag=           0 FMFlag=      100000 FMFlg1=        2001
         NFxFlg=           0 DoJE=F BraDBF=F KetDBF=F FulRan=T
         wScrn=  0.000000 ICntrl=         0 IOpCl=  0 I1Cent=           0 NGrid=           0
         NMat0=    1 NMatS0=      1 NMatT0=    0 NMatD0=    1 NMtDS0=    0 NMtDT0=    0
 Symmetry not used in FoFCou.
 FMM levels:  10  Number of levels for PrismC:   9
 E= -1990.29260329643    
 DIIS: error= 2.21D-02 at cycle   1 NSaved=   1.
 NSaved= 1 IEnMin= 1 EnMin= -1990.29260329643     IErMin= 1 ErrMin= 2.21D-02
 ErrMax= 2.21D-02  0.00D+00 EMaxC= 1.00D-01 BMatC= 1.25D+00 BMatP= 1.25D+00
 IDIUse=3 WtCom= 7.79D-01 WtEn= 2.21D-01
 Coeff-Com:  0.100D+01
 Coeff-En:   0.100D+01
 Coeff:      0.100D+01
 Gap=     0.366 Goal=   None    Shift=    0.000
 GapD=    0.366 DampG=1.000 DampE=0.500 DampFc=0.5000 IDamp=-1.
 Damping current iteration by 5.00D-01
 RMSDP=3.48D-03 MaxDP=3.48D-01              OVMax= 2.03D-01

 Cycle   2  Pass 0  IDiag  1:
 RMSU=  1.73D-03    CP:  9.88D-01
 E= -1990.80640214463     Delta-E=       -0.513798848202 Rises=F Damp=T
 DIIS: error= 7.06D-03 at cycle   2 NSaved=   2.
 NSaved= 2 IEnMin= 2 EnMin= -1990.80640214463     IErMin= 2 ErrMin= 7.06D-03
 ErrMax= 7.06D-03  0.00D+00 EMaxC= 1.00D-01 BMatC= 9.36D-02 BMatP= 1.25D+00
 IDIUse=3 WtCom= 9.29D-01 WtEn= 7.06D-02
 Coeff-Com: -0.257D-01 0.103D+01
 Coeff-En:   0.000D+00 0.100D+01
 Coeff:     -0.239D-01 0.102D+01
 Gap=     0.260 Goal=   None    Shift=    0.000
 RMSDP=8.69D-04 MaxDP=7.77D-02 DE=-5.14D-01 OVMax= 1.15D-01

 Cycle   3  Pass 0  IDiag  1:
 RMSU=  8.57D-04    CP:  9.81D-01  9.36D-01
 E= -1991.31457510148     Delta-E=       -0.508172956851 Rises=F Damp=F
 DIIS: error= 7.67D-03 at cycle   3 NSaved=   3.
 NSaved= 3 IEnMin= 3 EnMin= -1991.31457510148     IErMin= 2 ErrMin= 7.06D-03
 ErrMax= 7.67D-03  0.00D+00 EMaxC= 1.00D-01 BMatC= 5.14D-02 BMatP= 9.36D-02
 IDIUse=3 WtCom= 9.23D-01 WtEn= 7.67D-02
 Coeff-Com: -0.706D-01 0.444D+00 0.626D+00
 Coeff-En:   0.000D+00 0.000D+00 0.100D+01
 Coeff:     -0.652D-01 0.410D+00 0.655D+00
 Gap=     0.240 Goal=   None    Shift=    0.000
 RMSDP=5.24D-04 MaxDP=3.67D-02 DE=-5.08D-01 OVMax= 6.25D-02

 Cycle   4  Pass 0  IDiag  1:
 RMSU=  3.43D-04    CP:  9.84D-01  1.05D+00  5.97D-01
 E= -1991.34608914559     Delta-E=       -0.031514044104 Rises=F Damp=F
 DIIS: error= 3.89D-03 at cycle   4 NSaved=   4.
 NSaved= 4 IEnMin= 4 EnMin= -1991.34608914559     IErMin= 4 ErrMin= 3.89D-03
 ErrMax= 3.89D-03  0.00D+00 EMaxC= 1.00D-01 BMatC= 1.27D-02 BMatP= 5.14D-02
 IDIUse=3 WtCom= 9.61D-01 WtEn= 3.89D-02
 Coeff-Com: -0.279D-01 0.905D-01 0.359D+00 0.578D+00
 Coeff-En:   0.000D+00 0.000D+00 0.210D+00 0.790D+00
 Coeff:     -0.268D-01 0.870D-01 0.353D+00 0.586D+00
 Gap=     0.225 Goal=   None    Shift=    0.000
 RMSDP=2.10D-04 MaxDP=1.33D-02 DE=-3.15D-02 OVMax= 2.92D-02

 Cycle   5  Pass 0  IDiag  1:
 RMSU=  8.67D-05    CP:  9.84D-01  1.03D+00  7.30D-01  5.62D-01
 E= -1991.35665917590     Delta-E=       -0.010570030309 Rises=F Damp=F
 DIIS: error= 9.84D-04 at cycle   5 NSaved=   5.
 NSaved= 5 IEnMin= 5 EnMin= -1991.35665917590     IErMin= 5 ErrMin= 9.84D-04
 ErrMax= 9.84D-04  0.00D+00 EMaxC= 1.00D-01 BMatC= 5.94D-04 BMatP= 1.27D-02
 IDIUse=3 WtCom= 9.90D-01 WtEn= 9.84D-03
 Coeff-Com: -0.915D-02 0.211D-01 0.135D+00 0.285D+00 0.568D+00
 Coeff-En:   0.000D+00 0.000D+00 0.000D+00 0.000D+00 0.100D+01
 Coeff:     -0.906D-02 0.208D-01 0.134D+00 0.282D+00 0.572D+00
 Gap=     0.226 Goal=   None    Shift=    0.000
 RMSDP=5.11D-05 MaxDP=3.79D-03 DE=-1.06D-02 OVMax= 9.10D-03

 Cycle   6  Pass 0  IDiag  1:
 RMSU=  2.75D-05    CP:  9.83D-01  1.03D+00  7.29D-01  6.33D-01  5.93D-01
 E= -1991.35717408794     Delta-E=       -0.000514912039 Rises=F Damp=F
 DIIS: error= 3.22D-04 at cycle   6 NSaved=   6.
 NSaved= 6 IEnMin= 6 EnMin= -1991.35717408794     IErMin= 6 ErrMin= 3.22D-04
 ErrMax= 3.22D-04  0.00D+00 EMaxC= 1.00D-01 BMatC= 6.00D-05 BMatP= 5.94D-04
 IDIUse=3 WtCom= 9.97D-01 WtEn= 3.22D-03
 Coeff-Com: -0.175D-02 0.168D-02 0.303D-01 0.817D-01 0.293D+00 0.595D+00
 Coeff-En:   0.000D+00 0.000D+00 0.000D+00 0.000D+00 0.503D-02 0.995D+00
 Coeff:     -0.174D-02 0.168D-02 0.302D-01 0.815D-01 0.292D+00 0.596D+00
 Gap=     0.226 Goal=   None    Shift=    0.000
 RMSDP=1.51D-05 MaxDP=8.90D-04 DE=-5.15D-04 OVMax= 2.43D-03

 Cycle   7  Pass 0  IDiag  1:
 RMSU=  9.46D-06    CP:  9.83D-01  1.03D+00  7.31D-01  6.33D-01  6.78D-01
                    CP:  6.78D-01
 E= -1991.35723131141     Delta-E=       -0.000057223479 Rises=F Damp=F
 DIIS: error= 5.43D-05 at cycle   7 NSaved=   7.
 NSaved= 7 IEnMin= 7 EnMin= -1991.35723131141     IErMin= 7 ErrMin= 5.43D-05
 ErrMax= 5.43D-05  0.00D+00 EMaxC= 1.00D-01 BMatC= 3.88D-06 BMatP= 6.00D-05
 IDIUse=1 WtCom= 1.00D+00 WtEn= 0.00D+00
 Coeff-Com:  0.180D-03-0.136D-02-0.137D-02 0.551D-02 0.713D-01 0.253D+00
 Coeff-Com:  0.673D+00
 Coeff:      0.180D-03-0.136D-02-0.137D-02 0.551D-02 0.713D-01 0.253D+00
 Coeff:      0.673D+00
 Gap=     0.226 Goal=   None    Shift=    0.000
 RMSDP=4.46D-06 MaxDP=2.43D-04 DE=-5.72D-05 OVMax= 5.35D-04

 Initial convergence to 1.0D-05 achieved.  Increase integral accuracy.
 Cycle   8  Pass 1  IDiag  1:
 E= -1991.35723860090     Delta-E=       -0.000007289491 Rises=F Damp=F
 DIIS: error= 2.06D-04 at cycle   1 NSaved=   1.
 NSaved= 1 IEnMin= 1 EnMin= -1991.35723860090     IErMin= 1 ErrMin= 2.06D-04
 ErrMax= 2.06D-04  0.00D+00 EMaxC= 1.00D-01 BMatC= 1.37D-05 BMatP= 1.37D-05
 IDIUse=3 WtCom= 9.98D-01 WtEn= 2.06D-03
 Coeff-Com:  0.100D+01
 Coeff-En:   0.100D+01
 Coeff:      0.100D+01
 Gap=     0.226 Goal=   None    Shift=    0.000
 RMSDP=4.46D-06 MaxDP=2.43D-04 DE=-7.29D-06 OVMax= 4.73D-04

 Cycle   9  Pass 1  IDiag  1:
 RMSU=  7.49D-05    CP:  1.00D+00
 E= -1991.35725104090     Delta-E=       -0.000012439991 Rises=F Damp=F
 DIIS: error= 2.11D-05 at cycle   2 NSaved=   2.
 NSaved= 2 IEnMin= 2 EnMin= -1991.35725104090     IErMin= 2 ErrMin= 2.11D-05
 ErrMax= 2.11D-05  0.00D+00 EMaxC= 1.00D-01 BMatC= 7.80D-07 BMatP= 1.37D-05
 IDIUse=1 WtCom= 1.00D+00 WtEn= 0.00D+00
 Coeff-Com:  0.658D-01 0.934D+00
 Coeff:      0.658D-01 0.934D+00
 Gap=     0.226 Goal=   None    Shift=    0.000
 RMSDP=3.88D-06 MaxDP=2.09D-04 DE=-1.24D-05 OVMax= 3.63D-04

 Cycle  10  Pass 1  IDiag  1:
 RMSU=  3.22D-06    CP:  1.00D+00  1.03D+00
 E= -1991.35725071217     Delta-E=        0.000000328727 Rises=F Damp=F
 DIIS: error= 3.53D-05 at cycle   3 NSaved=   3.
 NSaved= 3 IEnMin= 2 EnMin= -1991.35725104090     IErMin= 2 ErrMin= 2.11D-05
 ErrMax= 3.53D-05  0.00D+00 EMaxC= 1.00D-01 BMatC= 1.20D-06 BMatP= 7.80D-07
 IDIUse=1 WtCom= 1.00D+00 WtEn= 0.00D+00
 Coeff-Com: -0.147D-01 0.560D+00 0.455D+00
 Coeff:     -0.147D-01 0.560D+00 0.455D+00
 Gap=     0.226 Goal=   None    Shift=    0.000
 RMSDP=1.81D-06 MaxDP=1.27D-04 DE= 3.29D-07 OVMax= 2.32D-04

 Cycle  11  Pass 1  IDiag  1:
 RMSU=  6.53D-07    CP:  1.00D+00  1.03D+00  4.85D-01
 E= -1991.35725172632     Delta-E=       -0.000001014151 Rises=F Damp=F
 DIIS: error= 4.37D-06 at cycle   4 NSaved=   4.
 NSaved= 4 IEnMin= 4 EnMin= -1991.35725172632     IErMin= 4 ErrMin= 4.37D-06
 ErrMax= 4.37D-06  0.00D+00 EMaxC= 1.00D-01 BMatC= 1.25D-08 BMatP= 7.80D-07
 IDIUse=1 WtCom= 1.00D+00 WtEn= 0.00D+00
 Coeff-Com: -0.829D-02 0.258D+00 0.222D+00 0.528D+00
 Coeff:     -0.829D-02 0.258D+00 0.222D+00 0.528D+00
 Gap=     0.226 Goal=   None    Shift=    0.000
 RMSDP=2.32D-07 MaxDP=1.28D-05 DE=-1.01D-06 OVMax= 3.86D-05

 Cycle  12  Pass 1  IDiag  1:
 RMSU=  2.06D-07    CP:  1.00D+00  1.03D+00  5.05D-01  8.76D-01
 E= -1991.35725173803     Delta-E=       -0.000000011712 Rises=F Damp=F
 DIIS: error= 1.46D-06 at cycle   5 NSaved=   5.
 NSaved= 5 IEnMin= 5 EnMin= -1991.35725173803     IErMin= 5 ErrMin= 1.46D-06
 ErrMax= 1.46D-06  0.00D+00 EMaxC= 1.00D-01 BMatC= 1.00D-09 BMatP= 1.25D-08
 IDIUse=1 WtCom= 1.00D+00 WtEn= 0.00D+00
 Coeff-Com: -0.845D-03 0.111D-01 0.119D-01 0.206D+00 0.772D+00
 Coeff:     -0.845D-03 0.111D-01 0.119D-01 0.206D+00 0.772D+00
 Gap=     0.226 Goal=   None    Shift=    0.000
 RMSDP=8.80D-08 MaxDP=4.44D-06 DE=-1.17D-08 OVMax= 1.18D-05

 Cycle  13  Pass 1  IDiag  1:
 RMSU=  6.58D-08    CP:  1.00D+00  1.03D+00  5.07D-01  9.54D-01  8.87D-01
 E= -1991.35725173899     Delta-E=       -0.000000000954 Rises=F Damp=F
 DIIS: error= 5.00D-07 at cycle   6 NSaved=   6.
 NSaved= 6 IEnMin= 6 EnMin= -1991.35725173899     IErMin= 6 ErrMin= 5.00D-07
 ErrMax= 5.00D-07  0.00D+00 EMaxC= 1.00D-01 BMatC= 2.64D-10 BMatP= 1.00D-09
 IDIUse=1 WtCom= 1.00D+00 WtEn= 0.00D+00
 Coeff-Com:  0.798D-03-0.330D-01-0.275D-01 0.387D-01 0.424D+00 0.597D+00
 Coeff:      0.798D-03-0.330D-01-0.275D-01 0.387D-01 0.424D+00 0.597D+00
 Gap=     0.226 Goal=   None    Shift=    0.000
 RMSDP=3.71D-08 MaxDP=1.70D-06 DE=-9.54D-10 OVMax= 5.10D-06

 Cycle  14  Pass 1  IDiag  1:
 RMSU=  2.65D-08    CP:  1.00D+00  1.03D+00  5.07D-01  9.74D-01  9.67D-01
                    CP:  7.73D-01
 E= -1991.35725173923     Delta-E=       -0.000000000246 Rises=F Damp=F
 DIIS: error= 1.35D-07 at cycle   7 NSaved=   7.
 NSaved= 7 IEnMin= 7 EnMin= -1991.35725173923     IErMin= 7 ErrMin= 1.35D-07
 ErrMax= 1.35D-07  0.00D+00 EMaxC= 1.00D-01 BMatC= 1.66D-11 BMatP= 2.64D-10
 IDIUse=1 WtCom= 1.00D+00 WtEn= 0.00D+00
 Coeff-Com:  0.415D-03-0.153D-01-0.131D-01 0.196D-02 0.122D+00 0.264D+00
 Coeff-Com:  0.640D+00
 Coeff:      0.415D-03-0.153D-01-0.131D-01 0.196D-02 0.122D+00 0.264D+00
 Coeff:      0.640D+00
 Gap=     0.226 Goal=   None    Shift=    0.000
 RMSDP=9.66D-09 MaxDP=5.42D-07 DE=-2.46D-10 OVMax= 1.68D-06

 SCF Done:  E(RM062X) =  -1991.35725174     A.U. after   14 cycles
            NFock= 14  Conv=0.97D-08     -V/T= 2.0076
 KE= 1.976405382056D+03 PE=-1.461701171874D+04 EE= 5.666869004701D+03
 Leave Link  502 at Thu Feb  7 12:36:20 2019, MaxMem=   104857600 cpu:            3546.0 elap:             148.0
 (Enter /home/xinyan/g16/l601.exe)
 Copying SCF densities to generalized density rwf, IOpCl= 0 IROHF=0.

 **********************************************************************

            Population analysis using the SCF density.

 **********************************************************************

 Orbital symmetries:
       Occupied  (A) (A) (A) (A) (A) (A) (A) (A) (A) (A) (A) (A)
                 (A) (A) (A) (A) (A) (A) (A) (A) (A) (A) (A) (A)
                 (A) (A) (A) (A) (A) (A) (A) (A) (A) (A) (A) (A)
                 (A) (A) (A) (A) (A) (A) (A) (A) (A) (A) (A) (A)
                 (A) (A) (A) (A) (A) (A) (A) (A) (A) (A) (A) (A)
                 (A) (A) (A) (A) (A) (A) (A) (A) (A) (A) (A) (A)
                 (A) (A) (A) (A) (A) (A) (A) (A) (A) (A) (A) (A)
                 (A) (A) (A) (A) (A) (A) (A) (A) (A) (A) (A) (A)
                 (A) (A) (A) (A) (A) (A) (A) (A) (A) (A) (A) (A)
                 (A) (A) (A) (A) (A) (A) (A) (A) (A) (A) (A) (A)
                 (A) (A) (A) (A) (A) (A) (A) (A) (A) (A) (A) (A)
                 (A) (A) (A) (A) (A) (A) (A) (A)
       Virtual   (A) (A) (A) (A) (A) (A) (A) (A) (A) (A) (A) (A)
                 (A) (A) (A) (A) (A) (A) (A) (A) (A) (A) (A) (A)
                 (A) (A) (A) (A) (A) (A) (A) (A) (A) (A) (A) (A)
                 (A) (A) (A) (A) (A) (A) (A) (A) (A) (A) (A) (A)
                 (A) (A) (A) (A) (A) (A) (A) (A) (A) (A) (A) (A)
                 (A) (A) (A) (A) (A) (A) (A) (A) (A) (A) (A) (A)
                 (A) (A) (A) (A) (A) (A) (A) (A) (A) (A) (A) (A)
                 (A) (A) (A) (A) (A) (A) (A) (A) (A) (A) (A) (A)
                 (A) (A) (A) (A) (A) (A) (A) (A) (A) (A) (A) (A)
                 (A) (A) (A) (A) (A) (A) (A) (A) (A) (A) (A) (A)
                 (A) (A) (A) (A) (A) (A) (A) (A) (A) (A) (A) (A)
                 (A) (A) (A) (A) (A) (A) (A) (A) (A) (A) (A) (A)
                 (A) (A) (A) (A) (A) (A) (A) (A) (A) (A) (A) (A)
                 (A) (A) (A) (A) (A) (A) (A) (A) (A) (A) (A) (A)
                 (A) (A) (A) (A) (A) (A) (A) (A) (A) (A) (A) (A)
                 (A) (A) (A) (A) (A) (A) (A) (A) (A) (A) (A) (A)
                 (A) (A) (A) (A) (A) (A) (A) (A) (A) (A) (A) (A)
                 (A) (A) (A) (A) (A) (A) (A) (A) (A) (A) (A) (A)
                 (A) (A) (A) (A) (A) (A) (A) (A) (A) (A) (A) (A)
                 (A) (A) (A) (A) (A) (A) (A) (A) (A) (A) (A) (A)
                 (A) (A) (A) (A) (A) (A) (A) (A) (A) (A) (A) (A)
                 (A) (A) (A) (A) (A) (A) (A) (A) (A) (A) (A) (A)
                 (A) (A) (A) (A) (A) (A) (A) (A) (A) (A) (A) (A)
                 (A) (A) (A) (A) (A) (A) (A) (A) (A) (A) (A) (A)
                 (A) (A) (A) (A) (A) (A) (A) (A) (A) (A) (A) (A)
                 (A) (A) (A) (A) (A) (A) (A) (A) (A) (A) (A) (A)
                 (A) (A) (A) (A) (A) (A) (A) (A) (A) (A) (A) (A)
                 (A) (A) (A) (A) (A) (A) (A) (A) (A) (A) (A) (A)
                 (A) (A) (A) (A) (A) (A) (A) (A) (A) (A) (A) (A)
                 (A) (A) (A) (A) (A) (A) (A) (A) (A) (A) (A) (A)
                 (A) (A) (A) (A) (A) (A) (A) (A) (A) (A) (A) (A)
                 (A) (A) (A) (A) (A) (A) (A) (A) (A) (A) (A) (A)
                 (A) (A) (A) (A) (A) (A) (A) (A) (A) (A) (A) (A)
                 (A) (A) (A) (A) (A) (A) (A) (A) (A) (A) (A) (A)
                 (A) (A) (A) (A) (A) (A) (A) (A) (A) (A) (A) (A)
                 (A) (A) (A) (A) (A) (A) (A) (A) (A) (A) (A) (A)
                 (A) (A) (A) (A) (A) (A) (A) (A) (A) (A) (A) (A)
                 (A) (A) (A) (A) (A) (A) (A) (A) (A) (A) (A) (A)
                 (A) (A) (A) (A) (A) (A) (A) (A) (A) (A) (A) (A)
                 (A) (A) (A) (A) (A) (A) (A) (A) (A) (A) (A) (A)
                 (A) (A) (A) (A) (A) (A)
 The electronic state is 1-A.
 Alpha  occ. eigenvalues --  -90.14515 -19.62095 -19.62018 -19.58530 -19.56615
 Alpha  occ. eigenvalues --  -19.50796 -14.85273 -14.80330 -14.76452 -10.63368
 Alpha  occ. eigenvalues --  -10.62774 -10.62257 -10.62018 -10.60934 -10.59643
 Alpha  occ. eigenvalues --  -10.58195 -10.57959 -10.57885 -10.57171 -10.56898
 Alpha  occ. eigenvalues --  -10.56817 -10.55826 -10.55788 -10.54968 -10.54968
 Alpha  occ. eigenvalues --  -10.54898 -10.54793 -10.54639 -10.54563 -10.54516
 Alpha  occ. eigenvalues --  -10.54438 -10.54363 -10.52979 -10.51276 -10.51231
 Alpha  occ. eigenvalues --  -10.49490  -8.45490  -6.37712  -6.37680  -6.37524
 Alpha  occ. eigenvalues --   -1.22316  -1.13629  -1.13222  -1.10567  -1.09228
 Alpha  occ. eigenvalues --   -1.05727  -1.02144  -0.99164  -0.95853  -0.95018
 Alpha  occ. eigenvalues --   -0.93560  -0.90315  -0.88744  -0.86184  -0.85516
 Alpha  occ. eigenvalues --   -0.84850  -0.84784  -0.84065  -0.83078  -0.82906
 Alpha  occ. eigenvalues --   -0.76696  -0.76050  -0.75774  -0.74251  -0.73027
 Alpha  occ. eigenvalues --   -0.71765  -0.68289  -0.68151  -0.67908  -0.67393
 Alpha  occ. eigenvalues --   -0.66629  -0.65350  -0.64825  -0.63520  -0.60504
 Alpha  occ. eigenvalues --   -0.60367  -0.59676  -0.59465  -0.57733  -0.57711
 Alpha  occ. eigenvalues --   -0.57279  -0.56482  -0.55823  -0.55140  -0.54259
 Alpha  occ. eigenvalues --   -0.53608  -0.52819  -0.52598  -0.52495  -0.51956
 Alpha  occ. eigenvalues --   -0.51598  -0.50919  -0.50476  -0.49927  -0.49409
 Alpha  occ. eigenvalues --   -0.49128  -0.48957  -0.48229  -0.48122  -0.47868
 Alpha  occ. eigenvalues --   -0.47777  -0.47543  -0.47042  -0.46297  -0.46033
 Alpha  occ. eigenvalues --   -0.45015  -0.44741  -0.44252  -0.43807  -0.43277
 Alpha  occ. eigenvalues --   -0.42592  -0.42187  -0.41244  -0.41175  -0.40984
 Alpha  occ. eigenvalues --   -0.40826  -0.40557  -0.39973  -0.39777  -0.39254
 Alpha  occ. eigenvalues --   -0.39203  -0.39092  -0.38398  -0.38168  -0.37759
 Alpha  occ. eigenvalues --   -0.37314  -0.36666  -0.36448  -0.35934  -0.34952
 Alpha  occ. eigenvalues --   -0.34419  -0.34104  -0.31783  -0.31213  -0.29808
 Alpha  occ. eigenvalues --   -0.28886  -0.28605  -0.27721  -0.24360  -0.24073
 Alpha virt. eigenvalues --   -0.01460   0.00387   0.03481   0.03711   0.10118
 Alpha virt. eigenvalues --    0.10773   0.11504   0.12362   0.13152   0.13347
 Alpha virt. eigenvalues --    0.14200   0.14365   0.14737   0.15309   0.15580
 Alpha virt. eigenvalues --    0.16144   0.16632   0.16894   0.17161   0.17740
 Alpha virt. eigenvalues --    0.17948   0.18248   0.18354   0.18696   0.19000
 Alpha virt. eigenvalues --    0.19214   0.19619   0.20008   0.20097   0.20206
 Alpha virt. eigenvalues --    0.20594   0.20893   0.21208   0.21365   0.21511
 Alpha virt. eigenvalues --    0.22072   0.22454   0.22764   0.23094   0.23678
 Alpha virt. eigenvalues --    0.23816   0.24172   0.24582   0.24664   0.24787
 Alpha virt. eigenvalues --    0.25225   0.25464   0.25841   0.26239   0.26756
 Alpha virt. eigenvalues --    0.27075   0.27631   0.27870   0.28402   0.28762
 Alpha virt. eigenvalues --    0.29016   0.29311   0.29647   0.30720   0.30782
 Alpha virt. eigenvalues --    0.31192   0.31574   0.31842   0.32343   0.32923
 Alpha virt. eigenvalues --    0.33495   0.34352   0.35386   0.35445   0.35826
 Alpha virt. eigenvalues --    0.36416   0.37465   0.37520   0.37950   0.38834
 Alpha virt. eigenvalues --    0.39895   0.40453   0.40613   0.42798   0.43001
 Alpha virt. eigenvalues --    0.44171   0.44590   0.47389   0.47844   0.48887
 Alpha virt. eigenvalues --    0.49468   0.51006   0.52614   0.53331   0.54808
 Alpha virt. eigenvalues --    0.55138   0.55390   0.56088   0.56866   0.57047
 Alpha virt. eigenvalues --    0.57393   0.58097   0.58563   0.59116   0.59529
 Alpha virt. eigenvalues --    0.59730   0.59839   0.60354   0.60509   0.60733
 Alpha virt. eigenvalues --    0.61074   0.61527   0.62364   0.62516   0.62873
 Alpha virt. eigenvalues --    0.63660   0.63940   0.64432   0.64822   0.65679
 Alpha virt. eigenvalues --    0.66025   0.66343   0.66952   0.67523   0.67930
 Alpha virt. eigenvalues --    0.68218   0.68927   0.69183   0.70002   0.70730
 Alpha virt. eigenvalues --    0.70847   0.71445   0.71794   0.72853   0.73302
 Alpha virt. eigenvalues --    0.73719   0.74332   0.74770   0.74845   0.75878
 Alpha virt. eigenvalues --    0.76553   0.77273   0.77837   0.78462   0.78992
 Alpha virt. eigenvalues --    0.79499   0.79966   0.80191   0.80640   0.80944
 Alpha virt. eigenvalues --    0.81803   0.82098   0.82816   0.83974   0.84555
 Alpha virt. eigenvalues --    0.84885   0.85299   0.85687   0.85824   0.86744
 Alpha virt. eigenvalues --    0.87816   0.88384   0.89026   0.89386   0.89693
 Alpha virt. eigenvalues --    0.89787   0.90136   0.90700   0.91219   0.91292
 Alpha virt. eigenvalues --    0.91369   0.92075   0.92650   0.92808   0.93298
 Alpha virt. eigenvalues --    0.93552   0.94029   0.94641   0.94888   0.95209
 Alpha virt. eigenvalues --    0.95667   0.95953   0.96701   0.96717   0.97039
 Alpha virt. eigenvalues --    0.97140   0.97763   0.97986   0.98338   0.98557
 Alpha virt. eigenvalues --    0.99149   0.99490   0.99752   1.00195   1.00924
 Alpha virt. eigenvalues --    1.01264   1.01686   1.02294   1.02640   1.03075
 Alpha virt. eigenvalues --    1.03145   1.04232   1.04337   1.04581   1.05679
 Alpha virt. eigenvalues --    1.06155   1.06924   1.07837   1.08155   1.08928
 Alpha virt. eigenvalues --    1.09847   1.10641   1.11153   1.11465   1.11927
 Alpha virt. eigenvalues --    1.13162   1.13487   1.14674   1.14800   1.15682
 Alpha virt. eigenvalues --    1.16184   1.17364   1.18437   1.18699   1.19015
 Alpha virt. eigenvalues --    1.19790   1.20049   1.20806   1.21299   1.21629
 Alpha virt. eigenvalues --    1.22235   1.23799   1.24076   1.25134   1.25419
 Alpha virt. eigenvalues --    1.26135   1.26863   1.28389   1.28944   1.29839
 Alpha virt. eigenvalues --    1.30986   1.31603   1.32028   1.32833   1.33289
 Alpha virt. eigenvalues --    1.33718   1.34534   1.35258   1.36129   1.36748
 Alpha virt. eigenvalues --    1.37074   1.38454   1.38900   1.40293   1.41075
 Alpha virt. eigenvalues --    1.41853   1.42443   1.43644   1.44529   1.46629
 Alpha virt. eigenvalues --    1.47114   1.48050   1.48275   1.49283   1.50029
 Alpha virt. eigenvalues --    1.51111   1.51814   1.52510   1.52754   1.54333
 Alpha virt. eigenvalues --    1.54894   1.55070   1.55782   1.56986   1.57180
 Alpha virt. eigenvalues --    1.57609   1.58189   1.60504   1.60743   1.61185
 Alpha virt. eigenvalues --    1.62064   1.62668   1.63438   1.65409   1.67174
 Alpha virt. eigenvalues --    1.69118   1.69523   1.70110   1.71700   1.72840
 Alpha virt. eigenvalues --    1.73883   1.74923   1.75793   1.76924   1.77529
 Alpha virt. eigenvalues --    1.78385   1.80056   1.80529   1.80967   1.82316
 Alpha virt. eigenvalues --    1.83735   1.84000   1.85313   1.85541   1.85734
 Alpha virt. eigenvalues --    1.86501   1.87074   1.87641   1.87885   1.88502
 Alpha virt. eigenvalues --    1.89605   1.90041   1.90462   1.90687   1.91747
 Alpha virt. eigenvalues --    1.92626   1.93741   1.94175   1.94674   1.94956
 Alpha virt. eigenvalues --    1.95095   1.95931   1.96529   1.97307   1.97529
 Alpha virt. eigenvalues --    1.98793   1.99123   1.99608   1.99937   2.00751
 Alpha virt. eigenvalues --    2.01638   2.02215   2.02518   2.02801   2.04222
 Alpha virt. eigenvalues --    2.05128   2.05855   2.06106   2.06933   2.07180
 Alpha virt. eigenvalues --    2.07394   2.07670   2.08749   2.09411   2.09896
 Alpha virt. eigenvalues --    2.10014   2.10670   2.11651   2.11854   2.12676
 Alpha virt. eigenvalues --    2.12926   2.14184   2.14451   2.14646   2.15587
 Alpha virt. eigenvalues --    2.15859   2.16423   2.17465   2.18692   2.19126
 Alpha virt. eigenvalues --    2.19696   2.20050   2.20587   2.21329   2.22117
 Alpha virt. eigenvalues --    2.22862   2.23234   2.23365   2.23829   2.24321
 Alpha virt. eigenvalues --    2.25065   2.25434   2.25889   2.27448   2.27682
 Alpha virt. eigenvalues --    2.29050   2.29234   2.30349   2.30623   2.31674
 Alpha virt. eigenvalues --    2.31842   2.33999   2.34692   2.35114   2.35435
 Alpha virt. eigenvalues --    2.35839   2.37216   2.37484   2.38343   2.38854
 Alpha virt. eigenvalues --    2.39093   2.40617   2.41034   2.41172   2.42288
 Alpha virt. eigenvalues --    2.43384   2.44388   2.45449   2.46266   2.46960
 Alpha virt. eigenvalues --    2.49052   2.50183   2.51830   2.52265   2.52625
 Alpha virt. eigenvalues --    2.53964   2.54203   2.55582   2.56858   2.59901
 Alpha virt. eigenvalues --    2.60982   2.61969   2.62144   2.62809   2.63372
 Alpha virt. eigenvalues --    2.64467   2.64738   2.65535   2.67026   2.68315
 Alpha virt. eigenvalues --    2.68961   2.69455   2.70074   2.71709   2.72645
 Alpha virt. eigenvalues --    2.73200   2.74437   2.76120   2.76545   2.77705
 Alpha virt. eigenvalues --    2.79455   2.80100   2.80605   2.80672   2.81625
 Alpha virt. eigenvalues --    2.83503   2.85411   2.86116   2.86768   2.88344
 Alpha virt. eigenvalues --    2.89396   2.91036   2.92732   2.93745   2.96858
 Alpha virt. eigenvalues --    2.99856   3.00478   3.02898   3.05340   3.10585
 Alpha virt. eigenvalues --    3.14838   3.16594   3.23954   3.41448   3.42704
 Alpha virt. eigenvalues --    3.95046   4.01281   4.04133   4.09167   4.10891
 Alpha virt. eigenvalues --    4.15453   4.16338   4.17152   4.18145   4.19465
 Alpha virt. eigenvalues --    4.20942   4.22765   4.24286   4.26076   4.27626
 Alpha virt. eigenvalues --    4.29271   4.32014   4.32825   4.34508   4.34861
 Alpha virt. eigenvalues --    4.39914   4.40118   4.41409   4.43693   4.46397
 Alpha virt. eigenvalues --    4.47992   4.55390   4.58123   4.59386   4.61120
 Alpha virt. eigenvalues --    4.63212   4.66147   4.73501   4.75491   4.76701
 Alpha virt. eigenvalues --    4.79736
          Condensed to atoms (all electrons):
 Mulliken charges:
               1
     1  C   -0.306375
     2  C   -0.307446
     3  C   -0.309679
     4  C   -0.059253
     5  C    0.055552
     6  C   -0.310140
     7  H    0.174781
     8  H    0.163073
     9  H    0.166281
    10  H    0.150726
    11  H    0.164471
    12  H    0.207835
    13  H    0.174822
    14  H    0.194966
    15  H    0.163437
    16  H    0.155396
    17  N   -0.433681
    18  C    0.069979
    19  C    0.066685
    20  C   -0.202969
    21  H    0.205515
    22  C   -0.211219
    23  H    0.243800
    24  C    0.447638
    25  H    0.192458
    26  H    0.211094
    27  N   -0.523582
    28  C   -0.169016
    29  H    0.168773
    30  H    0.226270
    31  C   -0.151965
    32  H    0.163242
    33  H    0.206555
    34  N   -0.806656
    35  S    1.248671
    36  O   -0.607106
    37  O   -0.600377
    38  C    0.074103
    39  C   -0.190261
    40  C   -0.190942
    41  C   -0.172449
    42  C   -0.164484
    43  C   -0.210073
    44  H    0.220705
    45  H    0.140263
    46  H    0.155015
    47  H    0.158539
    48  H    0.152279
    49  O   -0.560218
    50  H    0.443110
    51  C    0.720037
    52  O   -0.717035
    53  O   -0.715277
    54  H    0.438881
    55  C   -0.338153
    56  H    0.146443
    57  H    0.150355
    58  C   -0.086422
    59  H    0.136773
    60  H    0.149597
    61  C   -0.664265
    62  H    0.276736
    63  H    0.197621
    64  H    0.219091
    65  C   -0.288988
    66  H    0.134481
    67  H    0.144264
    68  C   -0.473626
    69  H    0.148225
    70  H    0.152251
    71  H    0.147096
    72  C   -0.332872
    73  H    0.186338
    74  H    0.161821
    75  C   -0.341582
    76  H    0.200612
    77  H    0.169454
 Sum of Mulliken charges =  -0.00000
 Mulliken charges with hydrogens summed into heavy atoms:
               1
     1  C    0.008822
     2  C    0.021908
     3  C    0.020499
     4  C    0.148582
     5  C    0.230374
     6  C    0.048262
    17  N   -0.433681
    18  C    0.275493
    19  C    0.310486
    20  C   -0.010510
    22  C   -0.000125
    24  C    0.447638
    27  N   -0.523582
    28  C    0.226026
    31  C    0.217833
    34  N   -0.363545
    35  S    1.248671
    36  O   -0.607106
    37  O   -0.600377
    38  C    0.074103
    39  C    0.030445
    40  C   -0.050679
    41  C   -0.017434
    42  C   -0.005945
    43  C   -0.057794
    49  O   -0.560218
    51  C    0.720037
    52  O   -0.717035
    53  O   -0.276396
    55  C   -0.041356
    58  C    0.199949
    61  C    0.029183
    65  C   -0.010243
    68  C   -0.026054
    72  C    0.015287
    75  C    0.028483
 Electronic spatial extent (au):  <R**2>=          14414.4663
 Charge=             -0.0000 electrons
 Dipole moment (field-independent basis, Debye):
    X=             -3.0698    Y=             -2.1504    Z=             -6.1052  Tot=              7.1639
 Quadrupole moment (field-independent basis, Debye-Ang):
   XX=           -206.9597   YY=           -221.7368   ZZ=           -220.0181
   XY=            -12.8231   XZ=             -4.6752   YZ=             10.2888
 Traceless Quadrupole moment (field-independent basis, Debye-Ang):
   XX=              9.2784   YY=             -5.4986   ZZ=             -3.7799
   XY=            -12.8231   XZ=             -4.6752   YZ=             10.2888
 Octapole moment (field-independent basis, Debye-Ang**2):
  XXX=              8.5612  YYY=            -53.2957  ZZZ=             13.3712  XYY=              6.1997
  XXY=            -26.9549  XXZ=            -41.3030  XZZ=            -22.4144  YZZ=             13.4655
  YYZ=             20.8947  XYZ=            -19.0017
 Hexadecapole moment (field-independent basis, Debye-Ang**3):
 XXXX=          -9892.0181 YYYY=          -5429.5396 ZZZZ=          -3581.6876 XXXY=           -204.9410
 XXXZ=             -5.8127 YYYX=            -85.2997 YYYZ=             44.6542 ZZZX=            -99.5010
 ZZZY=             10.1901 XXYY=          -2564.3368 XXZZ=          -2344.8182 YYZZ=          -1608.4817
 XXYZ=             46.6373 YYXZ=             45.7096 ZZXY=            -58.6818
 N-N= 4.982380080241D+03 E-N=-1.461701176558D+04  KE= 1.976405382056D+03
 No NMR shielding tensors so no spin-rotation constants.
 Leave Link  601 at Thu Feb  7 12:36:21 2019, MaxMem=   104857600 cpu:              22.1 elap:               1.0
 (Enter /home/xinyan/g16/l701.exe)
 ... and contract with generalized density number  0.
 Compute integral first derivatives.
 R6Disp: Adding Grimme-D3 dispersion energy 1st derivatives to the gradient.
 Leave Link  701 at Thu Feb  7 12:36:22 2019, MaxMem=   104857600 cpu:              24.2 elap:               1.1
 (Enter /home/xinyan/g16/l702.exe)
 L702 exits ... SP integral derivatives will be done elsewhere.
 Leave Link  702 at Thu Feb  7 12:36:22 2019, MaxMem=   104857600 cpu:               1.4 elap:               0.1
 (Enter /home/xinyan/g16/l703.exe)
 Integral derivatives from FoFJK, PRISM(SPDF).
 Compute integral first derivatives, UseDBF=F ICtDFT=           0.
 Calling FoFJK, ICntrl=      2127 FMM=T ISym2X=0 I1Cent= 0 IOpClX= 0 NMat=1 NMatS=1 NMatT=0.
 FoFJK:  IHMeth= 1 ICntrl=    2127 DoSepK=F KAlg= 0 I1Cent=           0 FoldK=F
 IRaf=         0 NMat=       1 IRICut=       1 DoRegI=T DoRafI=F ISym2E= 0 IDoP0=0 IntGTp=1.
 FoFCou: FMM=T IPFlag=           0 FMFlag=      100000 FMFlg1=        2001
         NFxFlg=           0 DoJE=F BraDBF=F KetDBF=F FulRan=T
         wScrn=  0.000000 ICntrl=      2127 IOpCl=  0 I1Cent=           0 NGrid=           0
         NMat0=    1 NMatS0=      1 NMatT0=    0 NMatD0=    1 NMtDS0=    0 NMtDT0=    0
 Symmetry not used in FoFCou.
 FMM levels:  10  Number of levels for PrismC:   9
 Leave Link  703 at Thu Feb  7 12:36:58 2019, MaxMem=   104857600 cpu:             845.5 elap:              36.3
 (Enter /home/xinyan/g16/l716.exe)
 Dipole        =-1.20774715D+00-8.46049752D-01-2.40195222D+00
 ***** Axes restored to original set *****
 -------------------------------------------------------------------
 Center     Atomic                   Forces (Hartrees/Bohr)
 Number     Number              X              Y              Z
 -------------------------------------------------------------------
      1        6           0.000066813    0.000005841   -0.000008885
      2        6           0.000053366    0.000014837    0.000046800
      3        6           0.000019389   -0.000001884    0.000005982
      4        6           0.000046572    0.000012220   -0.000026093
      5        6           0.000171805   -0.000006522   -0.000141303
      6        6           0.000115233    0.000021034    0.000022150
      7        1          -0.000021060   -0.000007451   -0.000007701
      8        1           0.000033173    0.000035633    0.000025002
      9        1           0.000014371    0.000039864    0.000035115
     10        1           0.000056816    0.000006885   -0.000012116
     11        1           0.000094761    0.000038286    0.000033824
     12        1           0.000035269   -0.000050999    0.000058658
     13        1           0.000081142   -0.000079528   -0.000047910
     14        1           0.000104127    0.000050213   -0.000016983
     15        1           0.000124454    0.000006821   -0.000019822
     16        1          -0.000004761   -0.000012425   -0.000048823
     17        7           0.000006195   -0.000035675   -0.000031315
     18        6           0.000004586   -0.000059190   -0.000069040
     19        6          -0.000001412   -0.000032159   -0.000016537
     20        6           0.000003162   -0.000013683    0.000001223
     21        1           0.000035631   -0.000007309   -0.000019099
     22        6           0.000023077   -0.000007565   -0.000002847
     23        1           0.000002963   -0.000053148   -0.000055986
     24        6          -0.000009846   -0.000056143    0.000012703
     25        1           0.000045592    0.000012615    0.000015076
     26        1           0.000017260   -0.000027054    0.000003388
     27        7           0.000020513    0.000083699    0.000027116
     28        6           0.000000338    0.000036978    0.000083139
     29        1          -0.000000133    0.000033913    0.000067868
     30        1          -0.000022773    0.000056567    0.000068792
     31        6          -0.000026108    0.000053081    0.000072015
     32        1          -0.000033230    0.000096185    0.000072880
     33        1           0.000013197    0.000083274    0.000127450
     34        7          -0.000740591   -0.000237900    0.000304641
     35       16           0.000165773    0.000032873   -0.000092086
     36        8           0.000042242   -0.000002606   -0.000141335
     37        8           0.000019527   -0.000067519   -0.000054704
     38        6           0.000015277    0.000059332    0.000052451
     39        6          -0.000007714    0.000121581    0.000004209
     40        6          -0.000027059    0.000077711    0.000053769
     41        6          -0.000062115    0.000055744    0.000077929
     42        6          -0.000036778   -0.000023368    0.000089018
     43        6          -0.000025007    0.000003461    0.000030430
     44        1          -0.000013319    0.000044337   -0.000001758
     45        1          -0.000018833    0.000151497    0.000019501
     46        1          -0.000062474    0.000057218    0.000083727
     47        1          -0.000067582   -0.000038502    0.000113709
     48        1          -0.000036724   -0.000042901    0.000089653
     49        8          -0.000201072    0.000379581   -0.000051988
     50        1           0.000613949   -0.000035151   -0.000327762
     51        6           0.000309012   -0.000095598    0.000182481
     52        8          -0.000373207   -0.000021540   -0.000026835
     53        8          -0.000023340    0.000043531    0.000017382
     54        1          -0.000078588    0.000024389    0.000106318
     55        6          -0.000041191    0.000016478    0.000006802
     56        1           0.000056397   -0.000107837   -0.000157069
     57        1          -0.000170106   -0.000074828   -0.000104661
     58        6          -0.000017593   -0.000043006    0.000116409
     59        1           0.000017543    0.000110355    0.000020964
     60        1           0.000029546    0.000020240   -0.000006078
     61        6          -0.000020399   -0.000030667   -0.000061316
     62        1          -0.000047097   -0.000000293   -0.000020823
     63        1          -0.000027390   -0.000027299   -0.000126256
     64        1          -0.000085641   -0.000010730   -0.000070852
     65        6          -0.000087848   -0.000068007   -0.000060002
     66        1          -0.000158116   -0.000078824   -0.000092839
     67        1          -0.000028932    0.000013977   -0.000011845
     68        6           0.000013960   -0.000141616   -0.000134412
     69        1          -0.000007309   -0.000162659   -0.000151269
     70        1           0.000094068   -0.000146845   -0.000129529
     71        1          -0.000020308   -0.000213303   -0.000187471
     72        6           0.000002142    0.000039576    0.000057375
     73        1          -0.000006875    0.000043366    0.000068818
     74        1          -0.000007053    0.000045584    0.000073288
     75        6          -0.000021376    0.000002621    0.000078144
     76        1           0.000067707    0.000074021    0.000063391
     77        1           0.000004011    0.000016312    0.000045762
 -------------------------------------------------------------------
 Cartesian Forces:  Max     0.000740591 RMS     0.000105902
 Z-matrix is all fixed cartesians, so copy forces.
 Leave Link  716 at Thu Feb  7 12:36:58 2019, MaxMem=   104857600 cpu:               2.4 elap:               0.1
 (Enter /home/xinyan/g16/l103.exe)

 GradGradGradGradGradGradGradGradGradGradGradGradGradGradGradGradGradGrad
 Berny optimization.
 Search for a local minimum.
 Step number   1 out of a maximum of    2
 All quantities printed in internal units (Hartrees-Bohrs-Radians)
 Second derivative matrix not updated -- first step.
 ITU=  0
     Eigenvalues ---   -0.00000   0.00000   0.00000   0.00000   0.00000
     Eigenvalues ---    0.00000   0.00004   0.00013   0.00018   0.00021
     Eigenvalues ---    0.00036   0.00038   0.00085   0.00092   0.00113
     Eigenvalues ---    0.00137   0.00138   0.00204   0.00234   0.00292
     Eigenvalues ---    0.00391   0.00409   0.00447   0.00504   0.00587
     Eigenvalues ---    0.00601   0.00620   0.00697   0.00710   0.00843
     Eigenvalues ---    0.00964   0.01114   0.01155   0.01490   0.01649
     Eigenvalues ---    0.01676   0.01892   0.01896   0.02041   0.02148
     Eigenvalues ---    0.02284   0.02305   0.02454   0.02528   0.02875
     Eigenvalues ---    0.02960   0.03076   0.03091   0.03217   0.03459
     Eigenvalues ---    0.03533   0.03731   0.03886   0.04187   0.04306
     Eigenvalues ---    0.04368   0.04800   0.04837   0.04846   0.04927
     Eigenvalues ---    0.05022   0.05066   0.05114   0.05120   0.05147
     Eigenvalues ---    0.05180   0.05249   0.05352   0.05468   0.05585
     Eigenvalues ---    0.05647   0.05672   0.05719   0.05747   0.05794
     Eigenvalues ---    0.06006   0.06131   0.06325   0.06553   0.06566
     Eigenvalues ---    0.06830   0.06846   0.06972   0.07015   0.07122
     Eigenvalues ---    0.07135   0.07233   0.07271   0.07332   0.07383
     Eigenvalues ---    0.07633   0.07816   0.07860   0.07936   0.08085
     Eigenvalues ---    0.08464   0.08533   0.08848   0.09046   0.09695
     Eigenvalues ---    0.09757   0.10169   0.10468   0.11272   0.11523
     Eigenvalues ---    0.11817   0.12149   0.12624   0.12839   0.12879
     Eigenvalues ---    0.12925   0.13030   0.13366   0.13670   0.13911
     Eigenvalues ---    0.14133   0.14386   0.14651   0.15721   0.15795
     Eigenvalues ---    0.16017   0.16119   0.16793   0.16952   0.16998
     Eigenvalues ---    0.17276   0.17292   0.17802   0.17879   0.19570
     Eigenvalues ---    0.19702   0.20353   0.20647   0.21586   0.21638
     Eigenvalues ---    0.23070   0.23353   0.23900   0.24832   0.26380
     Eigenvalues ---    0.27466   0.28543   0.29475   0.30026   0.30636
     Eigenvalues ---    0.31423   0.32334   0.34048   0.34723   0.36288
     Eigenvalues ---    0.36624   0.39384   0.40073   0.41107   0.43117
     Eigenvalues ---    0.43521   0.44531   0.48104   0.49095   0.50178
     Eigenvalues ---    0.53189   0.56754   0.57491   0.59995   0.64655
     Eigenvalues ---    0.65460   0.66271   0.67253   0.68202   0.68745
     Eigenvalues ---    0.70482   0.77560   0.78017   0.78752   0.81482
     Eigenvalues ---    0.83052   0.83352   0.85707   0.85882   0.87325
     Eigenvalues ---    0.88069   0.88684   0.90524   0.91300   0.93689
     Eigenvalues ---    0.94313   0.94817   0.94864   0.95753   0.96384
     Eigenvalues ---    0.97972   0.98059   0.99464   1.00409   1.00476
     Eigenvalues ---    1.00796   1.04038   1.04322   1.04472   1.06170
     Eigenvalues ---    1.06420   1.06754   1.07096   1.08671   1.09188
     Eigenvalues ---    1.13621   1.15608   1.15690   1.17570   1.19583
     Eigenvalues ---    1.21262   1.24016   1.26444   1.27580   1.37148
     Eigenvalues ---    1.47199   1.53533   1.58118   1.58997   1.59531
     Eigenvalues ---    1.60128   1.66661   1.73031   1.84329   2.35489
 Eigenvalue     1 is  -4.44D-16 should be greater than     0.000000 Eigenvector:
                          Y46       Y47       Y41       Y45       Y42
   1                    0.13473   0.13473   0.13473   0.13473   0.13473
                          Y40       Y43       Y39       Y48       Y38
   1                    0.13473   0.13473   0.13473   0.13473   0.13473
 Eigenvalue     2 is   5.32D-08 Eigenvector:
                          Y46       Y47       Y41       X54       Y42
   1                    0.20755   0.17845   0.17298  -0.16441   0.15670
                          Y45       X52       X53       Y40       X51
   1                    0.15662  -0.15176  -0.14855   0.14436  -0.13280
 Eigenvalue     3 is   7.07D-08 Eigenvector:
                          Z47       Z46       X46       Z42       Z41
   1                    0.19721   0.18093  -0.17089   0.16851   0.15952
                          Y46       Z71       X45       Z48       Z69
   1                   -0.15707  -0.15112  -0.14814   0.14755  -0.14580
 Eigenvalue     4 is   1.63D-07 Eigenvector:
                          Z77       Z76       Z57       Z71       Z75
   1                    0.18883   0.18045  -0.17154  -0.17006   0.16128
                          Y64       Z53       Z33       Z54       Z66
   1                   -0.15642  -0.15460   0.15040  -0.15039  -0.14847
 Eigenvalue     5 is   2.49D-07 Eigenvector:
                          Z47       Y46       Y64       Y9        Y47
   1                    0.18227   0.16665   0.15939  -0.15927   0.14578
                          Z42       Y71       Z48       Y73       Y7
   1                    0.14574  -0.14462   0.14292   0.13871  -0.13865
 Eigenvalue     6 is   4.60D-07 Eigenvector:
                          Z54       Y69       Y59       Y48       Y66
   1                    0.24872  -0.24151   0.23148   0.22901  -0.19198
                          Y45       Z53       Y71       Z70       Z69
   1                   -0.18907   0.18734  -0.18415  -0.18387  -0.17602
 Eigenvalue     7 is   4.08D-05 Eigenvector:
                          X69       X70       X45       Z69       Z70
   1                    0.26172   0.22783  -0.22671   0.21901   0.21878
                          X46       X68       X67       Z68       X40
   1                   -0.21779   0.20488   0.18761   0.17869  -0.17503
 Quadratic step=6.779D+00 exceeds max=3.000D-01 adjusted using Lamda=-2.695D-03.
 Angle between NR and scaled steps=  24.30 degrees.
 Angle between quadratic step and forces=  55.37 degrees.
 Linear search not attempted -- first point.
 B after Tr=    -0.000624    0.000237    0.000622
         Rot=    1.000000   -0.000172    0.000093   -0.000115 Ang=  -0.03 deg.
 Variable       Old X    -DE/DX   Delta X   Delta X   Delta X     New X
                                 (Linear)    (Quad)   (Total)
    X1       -9.34887   0.00007   0.00000   0.02200   0.02142  -9.32745
    Y1        0.44989   0.00001   0.00000   0.00842   0.00680   0.45669
    Z1       -0.81625  -0.00001   0.00000  -0.00301  -0.00398  -0.82022
    X2       -9.67226   0.00005   0.00000   0.00956   0.00983  -9.66243
    Y2       -1.97110   0.00001   0.00000   0.00600   0.00484  -1.96626
    Z2       -2.36960   0.00005   0.00000   0.00345   0.00159  -2.36802
    X3       -7.14145   0.00002   0.00000   0.00322   0.00390  -7.13755
    Y3       -2.81777  -0.00000   0.00000  -0.00469  -0.00488  -2.82265
    Z3       -3.49841   0.00001   0.00000  -0.00309  -0.00478  -3.50319
    X4       -5.25952   0.00005   0.00000   0.00772   0.00809  -5.25143
    Y4       -3.23223   0.00001   0.00000  -0.00739  -0.00789  -3.24012
    Z4       -1.35641  -0.00003   0.00000  -0.00754  -0.00901  -1.36542
    X5       -4.86166   0.00017   0.00000   0.01994   0.01947  -4.84219
    Y5       -0.76776  -0.00001   0.00000  -0.00640  -0.00733  -0.77509
    Z5        0.17251  -0.00014   0.00000  -0.01339  -0.01394   0.15858
    X6       -7.38378   0.00012   0.00000   0.02702   0.02613  -7.35766
    Y6        0.11983   0.00002   0.00000   0.00639   0.00450   0.12433
    Z6        1.28479   0.00002   0.00000  -0.00851  -0.00922   1.27556
    X7       -7.35086  -0.00002   0.00000  -0.00612  -0.00484  -7.35570
    Y7       -4.55057  -0.00001   0.00000  -0.00585  -0.00571  -4.55628
    Z7       -4.61053  -0.00001   0.00000   0.00049  -0.00183  -4.61237
    X8      -10.41993   0.00003   0.00000   0.00875   0.00913 -10.41080
    Y8       -3.48180   0.00004   0.00000   0.01110   0.00935  -3.47245
    Z8       -1.15984   0.00003   0.00000   0.00929   0.00677  -1.15307
    X9      -11.04560   0.00001   0.00000   0.00538   0.00587 -11.03973
    Y9       -1.67853   0.00004   0.00000   0.00731   0.00635  -1.67218
    Z9       -3.88830   0.00004   0.00000   0.00751   0.00550  -3.88280
   X10       -8.74286   0.00006   0.00000   0.02299   0.02230  -8.72056
   Y10        1.98546   0.00001   0.00000   0.00383   0.00279   1.98825
   Z10       -2.07401  -0.00001   0.00000  -0.00809  -0.00841  -2.08242
   X11      -11.16344   0.00009   0.00000   0.02661   0.02575 -11.13770
   Y11        1.01440   0.00004   0.00000   0.01600   0.01368   1.02808
   Z11        0.00180   0.00003   0.00000   0.00192   0.00081   0.00261
   X12       -5.98529   0.00004   0.00000   0.00767   0.00814  -5.97715
   Y12       -4.68947  -0.00005   0.00000  -0.00357  -0.00467  -4.69414
   Z12       -0.08039   0.00006   0.00000  -0.00288  -0.00500  -0.08538
   X13       -4.23937   0.00008   0.00000   0.02488   0.02433  -4.21505
   Y13        0.68183  -0.00008   0.00000  -0.01166  -0.01198   0.66986
   Z13       -1.17394  -0.00005   0.00000  -0.01664  -0.01657  -1.19051
   X14       -8.05651   0.00010   0.00000   0.02624   0.02540  -8.03110
   Y14       -1.25682   0.00005   0.00000   0.01249   0.00997  -1.24685
   Z14        2.67532  -0.00002   0.00000  -0.00298  -0.00429   2.67104
   X15       -7.05994   0.00012   0.00000   0.03734   0.03585  -7.02409
   Y15        1.91669   0.00001   0.00000   0.00736   0.00521   1.92191
   Z15        2.26038  -0.00002   0.00000  -0.01370  -0.01373   2.24665
   X16       -6.46502  -0.00000   0.00000   0.00416   0.00474  -6.46028
   Y16       -1.32387  -0.00001   0.00000  -0.00908  -0.00868  -1.33254
   Z16       -4.77069  -0.00005   0.00000  -0.00783  -0.00888  -4.77957
   X17       -2.74496   0.00001   0.00000   0.00496   0.00570  -2.73926
   Y17       -4.12096  -0.00004   0.00000  -0.01209  -0.01172  -4.13269
   Z17       -2.18371  -0.00003   0.00000  -0.00982  -0.01114  -2.19485
   X18       -1.43343   0.00000   0.00000   0.00684   0.00760  -1.42583
   Y18       -2.80513  -0.00006   0.00000  -0.01038  -0.00911  -2.81423
   Z18       -3.96000  -0.00007   0.00000  -0.00715  -0.00776  -3.96776
   X19       -1.44585  -0.00000   0.00000   0.00334   0.00413  -1.44172
   Y19       -5.66207  -0.00003   0.00000  -0.01211  -0.01200  -5.67407
   Z19       -0.59052  -0.00002   0.00000  -0.00849  -0.01010  -0.60062
   X20        1.12764   0.00000   0.00000   0.00754   0.00836   1.13600
   Y20       -2.92564  -0.00001   0.00000  -0.00505  -0.00312  -2.92876
   Z20       -4.14525   0.00000   0.00000   0.00024   0.00006  -4.14519
   X21       -2.54068   0.00004   0.00000   0.00812   0.00883  -2.53185
   Y21       -1.59453  -0.00001   0.00000  -0.01080  -0.00936  -1.60389
   Z21       -5.18305  -0.00002   0.00000  -0.00874  -0.00914  -5.19219
   X22        1.11658   0.00002   0.00000   0.00382   0.00466   1.12124
   Y22       -5.85804  -0.00001   0.00000  -0.00716  -0.00644  -5.86448
   Z22       -0.63990  -0.00000   0.00000  -0.00152  -0.00271  -0.64261
   X23       -2.57041   0.00000   0.00000   0.00138   0.00213  -2.56828
   Y23       -6.63192  -0.00005   0.00000  -0.01472  -0.01535  -6.64727
   Z23        0.82213  -0.00006   0.00000  -0.01187  -0.01402   0.80811
   X24        2.53934  -0.00001   0.00000   0.00495   0.00574   2.54508
   Y24       -4.30882  -0.00006   0.00000  -0.00122   0.00040  -4.30842
   Z24       -2.31004   0.00001   0.00000   0.00508   0.00469  -2.30535
   X25        2.06691   0.00005   0.00000   0.00966   0.01050   2.07741
   Y25       -1.82442   0.00001   0.00000  -0.00211   0.00053  -1.82389
   Z25       -5.58877   0.00002   0.00000   0.00381   0.00419  -5.58458
   X26        2.02102   0.00002   0.00000   0.00228   0.00312   2.02414
   Y26       -7.01623  -0.00003   0.00000  -0.00642  -0.00599  -7.02222
   Z26        0.77821   0.00000   0.00000   0.00012  -0.00130   0.77691
   X27        5.03999   0.00002   0.00000   0.00379   0.00452   5.04451
   Y27       -4.16558   0.00008   0.00000   0.00821   0.01035  -4.15523
   Z27       -2.16772   0.00003   0.00000   0.01517   0.01530  -2.15242
   X28        6.40689   0.00000   0.00000  -0.00075  -0.00021   6.40667
   Y28       -5.14015   0.00004   0.00000   0.01109   0.01277  -5.12737
   Z28        0.04787   0.00008   0.00000   0.01922   0.01927   0.06714
   X29        6.16671  -0.00000   0.00000   0.00071   0.00169   6.16840
   Y29       -7.18617   0.00003   0.00000   0.01099   0.01256  -7.17361
   Z29        0.21161   0.00007   0.00000   0.02010   0.01941   0.23102
   X30        5.66232  -0.00002   0.00000  -0.00532  -0.00531   5.65701
   Y30       -4.18021   0.00006   0.00000   0.01172   0.01265  -4.16755
   Z30        1.73409   0.00007   0.00000   0.01696   0.01721   1.75130
   X31        6.45440  -0.00003   0.00000   0.00081   0.00130   6.45570
   Y31       -2.11286   0.00005   0.00000   0.01487   0.01776  -2.09511
   Z31       -3.39852   0.00007   0.00000   0.02286   0.02397  -3.37455
   X32        6.95873  -0.00003   0.00000   0.00120   0.00218   6.96091
   Y32       -2.66185   0.00010   0.00000   0.02236   0.02603  -2.63582
   Z32       -5.33313   0.00007   0.00000   0.02093   0.02195  -5.31118
   X33        5.28333   0.00001   0.00000  -0.00121  -0.00111   5.28222
   Y33       -0.41128   0.00008   0.00000   0.01361   0.01623  -0.39505
   Z33       -3.41039   0.00013   0.00000   0.02897   0.03044  -3.37995
   X34       -2.78092  -0.00074   0.00000   0.01948   0.01871  -2.76221
   Y34       -0.95335  -0.00024   0.00000  -0.01350  -0.01457  -0.96792
   Z34        1.96163   0.00030   0.00000  -0.01476  -0.01499   1.94664
   X35       -2.86182   0.00017   0.00000   0.01074   0.00987  -2.85195
   Y35       -2.62292   0.00003   0.00000  -0.01076  -0.01275  -2.63567
   Z35        4.56138  -0.00009   0.00000  -0.01396  -0.01478   4.54660
   X36       -5.18123   0.00004   0.00000   0.00890   0.00838  -5.17285
   Y36       -4.13512  -0.00000   0.00000  -0.00765  -0.01015  -4.14527
   Z36        4.51900  -0.00014   0.00000  -0.02145  -0.02323   4.49577
   X37       -0.45301   0.00002   0.00000   0.00813   0.00752  -0.44549
   Y37       -3.95348  -0.00007   0.00000  -0.01363  -0.01516  -3.96864
   Z37        4.84592  -0.00005   0.00000  -0.00519  -0.00602   4.83990
   X38       -1.28445   0.00002   0.00000  -0.00441  -0.00617  -1.29061
   Y38        4.57522   0.00006   0.00000   0.02076   0.02057   4.59578
   Z38        0.38097   0.00005   0.00000   0.01347   0.01543   0.39640
   X39       -0.33894  -0.00001   0.00000  -0.00499  -0.00610  -0.34504
   Y39        3.63529   0.00012   0.00000   0.03108   0.03189   3.66718
   Z39       -1.91180   0.00000   0.00000   0.00889   0.01071  -1.90109
   X40       -1.74730  -0.00003   0.00000  -0.01108  -0.01182  -1.75912
   Y40        3.84359   0.00008   0.00000   0.03000   0.03126   3.87485
   Z40       -4.12869   0.00005   0.00000   0.01267   0.01430  -4.11439
   X41       -4.12595  -0.00006   0.00000  -0.01780  -0.01880  -4.14475
   Y41        4.97871   0.00006   0.00000   0.01589   0.01659   4.99530
   Z41       -4.12072   0.00008   0.00000   0.02160   0.02317  -4.09755
   X42       -5.08637  -0.00004   0.00000  -0.01828  -0.01992  -5.10629
   Y42        5.91522  -0.00002   0.00000   0.00293   0.00262   5.91785
   Z42       -1.85639   0.00009   0.00000   0.02668   0.02839  -1.82800
   X43       -3.67015  -0.00003   0.00000  -0.01131  -0.01332  -3.68347
   Y43        5.71234   0.00000   0.00000   0.00615   0.00541   5.71775
   Z43        0.35790   0.00003   0.00000   0.02238   0.02428   0.38218
   X44        1.45707  -0.00001   0.00000   0.00000  -0.00088   1.45619
   Y44        2.64375   0.00004   0.00000   0.03984   0.04106   2.68480
   Z44       -1.88997  -0.00000   0.00000   0.00195   0.00377  -1.88621
   X45       -0.96495  -0.00002   0.00000  -0.01062  -0.01087  -0.97582
   Y45        3.12207   0.00015   0.00000   0.04058   0.04262   3.16469
   Z45       -5.88865   0.00002   0.00000   0.00854   0.01007  -5.87858
   X46       -5.20941  -0.00006   0.00000  -0.02281  -0.02352  -5.23293
   Y46        5.14569   0.00006   0.00000   0.01492   0.01597   5.16165
   Z46       -5.85687   0.00008   0.00000   0.02467   0.02609  -5.83077
   X47       -6.93274  -0.00007   0.00000  -0.02399  -0.02585  -6.95859
   Y47        6.81246  -0.00004   0.00000  -0.00925  -0.00999   6.80247
   Z47       -1.81138   0.00011   0.00000   0.03406   0.03572  -1.77565
   X48       -4.43764  -0.00004   0.00000  -0.01159  -0.01409  -4.45174
   Y48        6.46335  -0.00004   0.00000  -0.00369  -0.00521   6.45814
   Z48        2.11184   0.00009   0.00000   0.02647   0.02848   2.14033
   X49        1.08644  -0.00020   0.00000  -0.00736  -0.00925   1.07720
   Y49        2.29740   0.00038   0.00000   0.02605   0.02519   2.32259
   Z49        3.86787  -0.00005   0.00000   0.01756   0.01919   3.88706
   X50       -0.95790   0.00061   0.00000   0.02286   0.02209  -0.93582
   Y50       -0.46113  -0.00004   0.00000  -0.02172  -0.02217  -0.48331
   Z50        1.41112  -0.00033   0.00000  -0.01609  -0.01581   1.39531
   X51        3.36987   0.00031   0.00000  -0.02598  -0.02735   3.34252
   Y51        1.01699  -0.00010   0.00000   0.00076   0.00081   1.01781
   Z51        2.73551   0.00018   0.00000   0.00775   0.00935   2.74486
   X52        2.77467  -0.00037   0.00000  -0.05439  -0.05512   2.71955
   Y52       -0.05055  -0.00002   0.00000  -0.00612  -0.00546  -0.05601
   Z52        0.58338  -0.00003   0.00000   0.01879   0.01990   0.60328
   X53        3.99140  -0.00002   0.00000  -0.02335  -0.02469   3.96671
   Y53       -0.71615   0.00004   0.00000   0.00695   0.00648  -0.70967
   Z53        4.67974   0.00002   0.00000   0.01246   0.01358   4.69332
   X54        2.67581  -0.00008   0.00000  -0.03378  -0.03481   2.64100
   Y54       -2.00120   0.00002   0.00000   0.01648   0.01573  -1.98547
   Z54        4.60135   0.00011   0.00000   0.03124   0.03168   4.63303
   X55        5.58185  -0.00004   0.00000  -0.01061  -0.01241   5.56944
   Y55        2.93512   0.00002   0.00000  -0.01739  -0.01682   2.91831
   Z55        2.74505   0.00001   0.00000  -0.02111  -0.01844   2.72662
   X56        5.33963   0.00006   0.00000   0.01758   0.01518   5.35481
   Y56        4.21607  -0.00011   0.00000  -0.01168  -0.01171   4.20436
   Z56        4.35945  -0.00016   0.00000  -0.02189  -0.01881   4.34064
   X57        7.29801  -0.00017   0.00000  -0.01642  -0.01805   7.27996
   Y57        1.84505  -0.00007   0.00000  -0.03162  -0.03079   1.81427
   Z57        3.15497  -0.00010   0.00000  -0.03621  -0.03360   3.12138
   X58        0.21106  -0.00002   0.00000   0.00214  -0.00008   0.21098
   Y58        4.58291  -0.00004   0.00000   0.02551   0.02480   4.60771
   Z58        2.86118   0.00012   0.00000   0.00937   0.01162   2.87280
   X59       -1.05452   0.00002   0.00000   0.01068   0.00801  -1.04652
   Y59        5.37149   0.00011   0.00000   0.03929   0.03780   5.40928
   Z59        4.30538   0.00002   0.00000   0.00933   0.01162   4.31700
   X60        1.77243   0.00003   0.00000   0.00885   0.00636   1.77879
   Y60        5.94326   0.00002   0.00000   0.01612   0.01584   5.95911
   Z60        2.67103  -0.00001   0.00000  -0.00235   0.00066   2.67169
   X61       -3.03252  -0.00002   0.00000   0.00132  -0.00053  -3.03305
   Y61       -0.38091  -0.00003   0.00000  -0.00702  -0.00991  -0.39082
   Z61        7.05620  -0.00006   0.00000  -0.01812  -0.01820   7.03800
   X62       -1.35408  -0.00005   0.00000   0.00273   0.00064  -1.35345
   Y62        0.81064  -0.00000   0.00000  -0.00806  -0.01050   0.80014
   Z62        6.86683  -0.00002   0.00000  -0.01135  -0.01071   6.85612
   X63       -4.77054  -0.00003   0.00000   0.00305   0.00099  -4.76955
   Y63        0.70593  -0.00003   0.00000  -0.00639  -0.00959   0.69633
   Z63        6.83096  -0.00013   0.00000  -0.02917  -0.02920   6.80176
   X64       -3.04099  -0.00009   0.00000  -0.00924  -0.01118  -3.05217
   Y64       -1.42793  -0.00001   0.00000  -0.00431  -0.00781  -1.43574
   Z64        8.83301  -0.00007   0.00000  -0.01665  -0.01710   8.81592
   X65        5.99871  -0.00009   0.00000  -0.02200  -0.02369   5.97502
   Y65        4.44346  -0.00007   0.00000  -0.02636  -0.02486   4.41861
   Z65        0.32150  -0.00006   0.00000  -0.02850  -0.02524   0.29626
   X66        6.42756  -0.00016   0.00000  -0.05556  -0.05666   6.37091
   Y66        3.14050  -0.00008   0.00000  -0.03349  -0.03136   3.10914
   Z66       -1.23165  -0.00009   0.00000  -0.03178  -0.02890  -1.26054
   X67        4.27454  -0.00003   0.00000  -0.01676  -0.01858   4.25596
   Y67        5.43328   0.00001   0.00000  -0.00622  -0.00491   5.42837
   Z67       -0.25438  -0.00001   0.00000  -0.00950  -0.00621  -0.26059
   X68        8.13612   0.00001   0.00000   0.00469   0.00251   8.13863
   Y68        6.36097  -0.00014   0.00000  -0.05199  -0.05008   6.31089
   Z68        0.62756  -0.00013   0.00000  -0.05545  -0.05113   0.57643
   X69        8.48856  -0.00001   0.00000  -0.00242  -0.00451   8.48405
   Y69        7.41283  -0.00016   0.00000  -0.05813  -0.05554   7.35729
   Z69       -1.11779  -0.00015   0.00000  -0.06055  -0.05580  -1.17359
   X70        7.67898   0.00009   0.00000   0.03830   0.03553   7.71451
   Y70        7.73164  -0.00015   0.00000  -0.04513  -0.04383   7.68781
   Z70        2.11109  -0.00013   0.00000  -0.05147  -0.04675   2.06433
   X71        9.89922  -0.00002   0.00000  -0.00059  -0.00265   9.89657
   Y71        5.42438  -0.00021   0.00000  -0.07310  -0.07097   5.35341
   Z71        1.17843  -0.00019   0.00000  -0.07447  -0.07015   1.10828
   X72        9.12857   0.00000   0.00000  -0.00033   0.00013   9.12869
   Y72       -4.36109   0.00004   0.00000   0.01246   0.01495  -4.34614
   Z72       -0.48177   0.00006   0.00000   0.02370   0.02453  -0.45723
   X73       10.25887  -0.00001   0.00000  -0.00290  -0.00278  10.25609
   Y73       -4.29327   0.00004   0.00000   0.01281   0.01497  -4.27830
   Z73        1.24206   0.00007   0.00000   0.02537   0.02643   1.26849
   X74       10.01266  -0.00001   0.00000   0.00198   0.00299  10.01564
   Y74       -5.68942   0.00005   0.00000   0.01272   0.01587  -5.67355
   Z74       -1.80161   0.00007   0.00000   0.02504   0.02558  -1.77603
   X75        8.77668  -0.00002   0.00000   0.00110   0.00119   8.77787
   Y75       -1.76776   0.00000   0.00000   0.01244   0.01527  -1.75249
   Z75       -1.70861   0.00008   0.00000   0.02321   0.02487  -1.68375
   X76        8.30843   0.00007   0.00000   0.00312   0.00262   8.31105
   Y76       -0.38928   0.00007   0.00000   0.01321   0.01543  -0.37386
   Z76       -0.24238   0.00006   0.00000   0.02316   0.02521  -0.21717
   X77       10.42613   0.00000   0.00000   0.00151   0.00165  10.42778
   Y77       -1.10844   0.00002   0.00000   0.01091   0.01448  -1.09396
   Z77       -2.75892   0.00005   0.00000   0.02287   0.02507  -2.73386
         Item               Value     Threshold  Converged?
 Maximum Force            0.000741     0.000450     NO 
 RMS     Force            0.000106     0.000300     YES
 Maximum Displacement     0.070974     0.001800     NO 
 RMS     Displacement     0.019673     0.001200     NO 
 Predicted change in Energy=-2.608520D-04
 GradGradGradGradGradGradGradGradGradGradGradGradGradGradGradGradGradGrad

 Leave Link  103 at Thu Feb  7 12:36:59 2019, MaxMem=   104857600 cpu:              20.5 elap:               0.9
 (Enter /home/xinyan/g16/l9999.exe)
 1\1\GINC-TSE4\Force\RM062X\6-31G(d)\C27H41N3O5S1\STEVETSE\07-Feb-2019\
 0\\#p M062X/6-31G* em=gd3 force int=ultrafine\\Title\\0,1\C,-4.94721,0
 .23807,-0.43194\C,-5.11834,-1.04306,-1.25394\C,-3.77909,-1.4911,-1.851
 28\C,-2.78322,-1.71042,-0.71778\C,-2.57268,-0.40628,0.09129\C,-3.90733
 ,0.06341,0.67988\H,-3.88991,-2.40806,-2.43979\H,-5.51399,-1.84249,-0.6
 1376\H,-5.84508,-0.88824,-2.0576\H,-4.62652,1.05066,-1.09752\H,-5.9074
 4,0.5368,0.00095\H,-3.16728,-2.48156,-0.04254\H,-2.24338,0.36081,-0.62
 122\H,-4.26332,-0.66508,1.41572\H,-3.73596,1.01427,1.19614\H,-3.42114,
 -0.70056,-2.52454\N,-1.45257,-2.18072,-1.15557\C,-0.75854,-1.48441,-2.
 09554\C,-0.76511,-2.99624,-0.31249\C,0.59672,-1.54818,-2.19357\H,-1.34
 447,-0.84379,-2.74275\C,0.59087,-3.09994,-0.33862\H,-1.3602,-3.50946,0
 .43505\C,1.34376,-2.28013,-1.22242\H,1.09376,-0.96544,-2.95745\H,1.069
 48,-3.71283,0.41181\N,2.66705,-2.20433,-1.14711\C,3.39038,-2.72005,0.0
 2533\H,3.26328,-3.80276,0.11198\H,2.99637,-2.21207,0.91764\C,3.41552,-
 1.11808,-1.79842\H,3.6824,-1.40859,-2.82217\H,2.79582,-0.21764,-1.8047
 \N,-1.4716,-0.50449,1.03805\S,-1.51441,-1.38799,2.41378\O,-2.74179,-2.
 18821,2.39135\O,-0.23972,-2.09209,2.56435\C,-0.6797,2.4211,0.2016\C,-0
 .17936,1.92371,-1.01168\C,-0.92463,2.03394,-2.18481\C,-2.18336,2.63462
 ,-2.18059\C,-2.69159,3.1302,-0.98236\C,-1.94216,3.02284,0.18939\H,0.77
 105,1.39901,-1.00013\H,-0.51063,1.65213,-3.11614\H,-2.7567,2.72298,-3.
 09932\H,-3.66865,3.605,-0.95854\H,-2.3483,3.42026,1.11754\O,0.57492,1.
 21573,2.04679\H,-0.5069,-0.24402,0.74673\C,1.78326,0.53817,1.44757\O,1
 .46829,-0.02675,0.30871\O,2.11216,-0.37897,2.47641\H,1.41598,-1.05899,
 2.43493\C,2.95379,1.5532,1.45262\H,2.82561,2.23105,2.30692\H,3.86194,0
 .97636,1.66954\C,0.11169,2.42517,1.51407\H,-0.55803,2.84247,2.27831\H,
 0.93793,3.14504,1.41345\C,-1.60474,-0.20157,3.73398\H,-0.71655,0.42897
 ,3.63377\H,-2.52446,0.37356,3.61479\H,-1.60922,-0.75563,4.67423\C,3.17
 438,2.35138,0.17013\H,3.40132,1.66188,-0.65176\H,2.26199,2.87517,-0.13
 461\C,4.30545,3.36608,0.33209\H,4.49195,3.9227,-0.59151\H,4.06354,4.09
 141,1.11714\H,5.23844,2.87046,0.6236\C,4.83063,-2.30779,-0.25494\H,5.4
 2876,-2.2719,0.65727\H,5.29847,-3.01071,-0.95337\C,4.64442,-0.93546,-0
 .90416\H,4.39663,-0.206,-0.12826\H,5.51727,-0.58656,-1.45996\\Version=
 ES64L-G16RevA.03\State=1-A\HF=-1991.3572517\RMSD=9.657e-09\RMSF=1.059e
 -04\Dipole=-1.1553264,-0.7449373,-2.4605116\Quadrupole=7.1687504,-4.89
 31083,-2.2756422,-9.4365127,-3.7689472,7.3536099\PG=C01 [X(C27H41N3O5S
 1)]\\@


 YOU ARE IN A MAZE OF TWISTY LITTLE PASSAGES.
 Job cpu time:       0 days  1 hours 17 minutes 46.8 seconds.
 Elapsed time:       0 days  0 hours  3 minutes 16.5 seconds.
 File lengths (MBytes):  RWF=    216 Int=      0 D2E=      0 Chk=     25 Scr=      1
 Normal termination of Gaussian 16 at Thu Feb  7 12:37:00 2019.
