 Entering Gaussian System, Link 0=g16
 Input=C27N3H41SO5-119.gjf
 Output=C27N3H41SO5-119.log
 Initial command:
 /home/xinyan/g16/l1.exe "/local/home/tmp/Gau-15803.inp" -scrdir="/local/home/tmp/"
 Entering Link 1 = /home/xinyan/g16/l1.exe PID=     15804.
  
 Copyright (c) 1988,1990,1992,1993,1995,1998,2003,2009,2016,
            Gaussian, Inc.  All Rights Reserved.
  
 This is part of the Gaussian(R) 16 program.  It is based on
 the Gaussian(R) 09 system (copyright 2009, Gaussian, Inc.),
 the Gaussian(R) 03 system (copyright 2003, Gaussian, Inc.),
 the Gaussian(R) 98 system (copyright 1998, Gaussian, Inc.),
 the Gaussian(R) 94 system (copyright 1995, Gaussian, Inc.),
 the Gaussian 92(TM) system (copyright 1992, Gaussian, Inc.),
 the Gaussian 90(TM) system (copyright 1990, Gaussian, Inc.),
 the Gaussian 88(TM) system (copyright 1988, Gaussian, Inc.),
 the Gaussian 86(TM) system (copyright 1986, Carnegie Mellon
 University), and the Gaussian 82(TM) system (copyright 1983,
 Carnegie Mellon University). Gaussian is a federally registered
 trademark of Gaussian, Inc.
  
 This software contains proprietary and confidential information,
 including trade secrets, belonging to Gaussian, Inc.
  
 This software is provided under written license and may be
 used, copied, transmitted, or stored only in accord with that
 written license.
  
 The following legend is applicable only to US Government
 contracts under FAR:
  
                    RESTRICTED RIGHTS LEGEND
  
 Use, reproduction and disclosure by the US Government is
 subject to restrictions as set forth in subparagraphs (a)
 and (c) of the Commercial Computer Software - Restricted
 Rights clause in FAR 52.227-19.
  
 Gaussian, Inc.
 340 Quinnipiac St., Bldg. 40, Wallingford CT 06492
  
  
 ---------------------------------------------------------------
 Warning -- This program may not be used in any manner that
 competes with the business of Gaussian, Inc. or will provide
 assistance to any competitor of Gaussian, Inc.  The licensee
 of this program is prohibited from giving any competitor of
 Gaussian, Inc. access to this program.  By using this program,
 the user acknowledges that Gaussian, Inc. is engaged in the
 business of creating and licensing software in the field of
 computational chemistry and represents and warrants to the
 licensee that it is not a competitor of Gaussian, Inc. and that
 it will not use this program in any manner prohibited above.
 ---------------------------------------------------------------
  

 Cite this work as:
 Gaussian 16, Revision A.03,
 M. J. Frisch, G. W. Trucks, H. B. Schlegel, G. E. Scuseria, 
 M. A. Robb, J. R. Cheeseman, G. Scalmani, V. Barone, 
 G. A. Petersson, H. Nakatsuji, X. Li, M. Caricato, A. V. Marenich, 
 J. Bloino, B. G. Janesko, R. Gomperts, B. Mennucci, H. P. Hratchian, 
 J. V. Ortiz, A. F. Izmaylov, J. L. Sonnenberg, D. Williams-Young, 
 F. Ding, F. Lipparini, F. Egidi, J. Goings, B. Peng, A. Petrone, 
 T. Henderson, D. Ranasinghe, V. G. Zakrzewski, J. Gao, N. Rega, 
 G. Zheng, W. Liang, M. Hada, M. Ehara, K. Toyota, R. Fukuda, 
 J. Hasegawa, M. Ishida, T. Nakajima, Y. Honda, O. Kitao, H. Nakai, 
 T. Vreven, K. Throssell, J. A. Montgomery, Jr., J. E. Peralta, 
 F. Ogliaro, M. J. Bearpark, J. J. Heyd, E. N. Brothers, K. N. Kudin, 
 V. N. Staroverov, T. A. Keith, R. Kobayashi, J. Normand, 
 K. Raghavachari, A. P. Rendell, J. C. Burant, S. S. Iyengar, 
 J. Tomasi, M. Cossi, J. M. Millam, M. Klene, C. Adamo, R. Cammi, 
 J. W. Ochterski, R. L. Martin, K. Morokuma, O. Farkas, 
 J. B. Foresman, and D. J. Fox, Gaussian, Inc., Wallingford CT, 2016.
 
 ******************************************
 Gaussian 16:  ES64L-G16RevA.03 25-Dec-2016
                 7-Feb-2019 
 ******************************************
 %nproc=24
 Will use up to   24 processors via shared memory.
 ------------------------------------------
 #p M062X/6-31G* em=gd3 force int=ultrafine
 ------------------------------------------
 1/10=7,30=1,38=1/1,3;
 2/12=2,17=6,18=5,40=1/2;
 3/5=1,6=6,7=1,11=2,25=1,30=1,71=1,74=-55,75=-5,124=31/1,2,3;
 4//1;
 5/5=2,38=5/2;
 6/7=2,8=2,9=2,10=2,28=1/1;
 7/29=1/1,2,3,16;
 1/10=7,30=1/3;
 99//99;
 Leave Link    1 at Thu Feb  7 15:07:44 2019, MaxMem=           0 cpu:               2.4 elap:               0.1
 (Enter /home/xinyan/g16/l101.exe)
 -----
 Title
 -----
 Symbolic Z-matrix:
 Charge =  0 Multiplicity = 1
 C                    -4.89541   0.24357  -0.43595 
 C                    -5.07983  -1.02362  -1.2763 
 C                    -3.74644  -1.4738   -1.8861 
 C                    -2.75238  -1.71865  -0.75692 
 C                    -2.52183  -0.42577   0.06787 
 C                    -3.85087   0.04677   0.66742 
 H                    -3.86831  -2.38103  -2.48746 
 H                    -5.47843  -1.82968  -0.64634 
 H                    -5.80918  -0.85076  -2.07386 
 H                    -4.57284   1.06325  -1.09116 
 H                    -5.85104   0.54266   0.00684 
 H                    -3.14673  -2.49124  -0.08979 
 H                    -2.18797   0.34622  -0.63721 
 H                    -4.20891  -0.68959   1.39479 
 H                    -3.67066   0.98948   1.19501 
 H                    -3.38339  -0.67655  -2.54877 
 N                    -1.42615  -2.20114  -1.19536 
 C                    -0.72088  -1.50037  -2.12293 
 C                    -0.74825  -3.01639  -0.34362 
 C                     0.63656  -1.5546   -2.19647 
 H                    -1.30001  -0.86374  -2.78051 
 C                     0.609    -3.10655  -0.34159 
 H                    -1.35402  -3.53754   0.38985 
 C                     1.36955  -2.27299  -1.20458 
 H                     1.1427   -0.97016  -2.95277 
 H                     1.07867  -3.71691   0.41658 
 N                     2.68912  -2.17088  -1.09318 
 C                     3.39355  -2.6448    0.10825 
 H                     3.27399  -3.72534   0.22536 
 H                     2.97756  -2.11532   0.97813 
 C                     3.43261  -1.09048  -1.75547 
 H                     3.69763  -1.38935  -2.77707 
 H                     2.80526  -0.19534  -1.77775 
 N                    -1.41903  -0.55267   1.00763 
 S                    -1.50063  -1.43503   2.37578 
 O                    -2.70367  -2.27138   2.31489 
 O                    -0.21448  -2.10754   2.57736 
 C                    -0.71909   2.46977   0.26641 
 C                    -0.22613   2.01351  -0.9663 
 C                    -0.98856   2.13706  -2.12624 
 C                    -2.26001   2.71011  -2.08933 
 C                    -2.76301   3.16144  -0.87235 
 C                    -1.99427   3.04223   0.28582 
 H                     0.73275   1.50808  -0.9869 
 H                    -0.57934   1.78876  -3.07236 
 H                    -2.84788   2.80975  -2.99767 
 H                    -3.75061   3.61182  -0.82235 
 H                    -2.39488   3.40921   1.22881 
 O                     0.54844   1.2774    2.11571 
 H                    -0.43043  -0.30151   0.71959 
 C                     1.69852   0.56252   1.48111 
 O                     1.31536  -0.01748   0.36207 
 O                     2.06157  -0.34668   2.50406 
 H                     1.36559  -1.02826   2.49612 
 C                     2.90432   1.5361    1.40639 
 H                     2.84355   2.23285   2.25232 
 H                     3.79454   0.92395   1.59632 
 C                     0.09732   2.48246   1.56259 
 H                    -0.54625   2.92955   2.33146 
 H                     0.93644   3.18136   1.42899 
 C                    -1.67718  -0.2555    3.69386 
 H                    -0.806     0.40235   3.62958 
 H                    -2.60686   0.29401   3.53598 
 H                    -1.70601  -0.80924   4.63373 
 C                     3.10752   2.2994    0.10087 
 H                     3.1364    1.5874   -0.73015 
 H                     2.26175   2.96436  -0.11078 
 C                     4.39421   3.12277   0.12559 
 H                     4.54936   3.66398  -0.81295 
 H                     4.36981   3.8593    0.93733 
 H                     5.26658   2.48239   0.29537 
 C                     4.83671  -2.23393  -0.16113 
 H                     5.41745  -2.16022   0.76007 
 H                     5.32039  -2.96144  -0.82224 
 C                     4.66457  -0.88744  -0.86829 
 H                     4.43678  -0.11836  -0.12589 
 H                     5.54166  -0.57661  -1.43979 
 
 ITRead=  0  0  0  0  0  0  0  0  0  0  0  0  0  0  0  0  0  0  0  0
 ITRead=  0  0  0  0  0  0  0  0  0  0  0  0  0  0  0  0  0  0  0  0
 ITRead=  0  0  0  0  0  0  0  0  0  0  0  0  0  0  0  0  0  0  0  0
 ITRead=  0  0  0  0  0  0  0  0  0  0  0  0  0  0  0  0  0
 MicOpt= -1 -1 -1 -1 -1 -1 -1 -1 -1 -1 -1 -1 -1 -1 -1 -1 -1 -1 -1 -1
 MicOpt= -1 -1 -1 -1 -1 -1 -1 -1 -1 -1 -1 -1 -1 -1 -1 -1 -1 -1 -1 -1
 MicOpt= -1 -1 -1 -1 -1 -1 -1 -1 -1 -1 -1 -1 -1 -1 -1 -1 -1 -1 -1 -1
 MicOpt= -1 -1 -1 -1 -1 -1 -1 -1 -1 -1 -1 -1 -1 -1 -1 -1 -1
 NAtoms=     77 NQM=       77 NQMF=       0 NMMI=      0 NMMIF=      0
                NMic=       0 NMicF=      0.
                    Isotopes and Nuclear Properties:
 (Nuclear quadrupole moments (NQMom) in fm**2, nuclear magnetic moments (NMagM)
  in nuclear magnetons)

  Atom         1           2           3           4           5           6           7           8           9          10
 IAtWgt=          12          12          12          12          12          12           1           1           1           1
 AtmWgt=  12.0000000  12.0000000  12.0000000  12.0000000  12.0000000  12.0000000   1.0078250   1.0078250   1.0078250   1.0078250
 NucSpn=           0           0           0           0           0           0           1           1           1           1
 AtZEff=  -0.0000000  -0.0000000  -0.0000000  -0.0000000  -0.0000000  -0.0000000  -0.0000000  -0.0000000  -0.0000000  -0.0000000
 NQMom=    0.0000000   0.0000000   0.0000000   0.0000000   0.0000000   0.0000000   0.0000000   0.0000000   0.0000000   0.0000000
 NMagM=    0.0000000   0.0000000   0.0000000   0.0000000   0.0000000   0.0000000   2.7928460   2.7928460   2.7928460   2.7928460
 AtZNuc=   6.0000000   6.0000000   6.0000000   6.0000000   6.0000000   6.0000000   1.0000000   1.0000000   1.0000000   1.0000000

  Atom        11          12          13          14          15          16          17          18          19          20
 IAtWgt=           1           1           1           1           1           1          14          12          12          12
 AtmWgt=   1.0078250   1.0078250   1.0078250   1.0078250   1.0078250   1.0078250  14.0030740  12.0000000  12.0000000  12.0000000
 NucSpn=           1           1           1           1           1           1           2           0           0           0
 AtZEff=  -0.0000000  -0.0000000  -0.0000000  -0.0000000  -0.0000000  -0.0000000  -0.0000000  -0.0000000  -0.0000000  -0.0000000
 NQMom=    0.0000000   0.0000000   0.0000000   0.0000000   0.0000000   0.0000000   2.0440000   0.0000000   0.0000000   0.0000000
 NMagM=    2.7928460   2.7928460   2.7928460   2.7928460   2.7928460   2.7928460   0.4037610   0.0000000   0.0000000   0.0000000
 AtZNuc=   1.0000000   1.0000000   1.0000000   1.0000000   1.0000000   1.0000000   7.0000000   6.0000000   6.0000000   6.0000000

  Atom        21          22          23          24          25          26          27          28          29          30
 IAtWgt=           1          12           1          12           1           1          14          12           1           1
 AtmWgt=   1.0078250  12.0000000   1.0078250  12.0000000   1.0078250   1.0078250  14.0030740  12.0000000   1.0078250   1.0078250
 NucSpn=           1           0           1           0           1           1           2           0           1           1
 AtZEff=  -0.0000000  -0.0000000  -0.0000000  -0.0000000  -0.0000000  -0.0000000  -0.0000000  -0.0000000  -0.0000000  -0.0000000
 NQMom=    0.0000000   0.0000000   0.0000000   0.0000000   0.0000000   0.0000000   2.0440000   0.0000000   0.0000000   0.0000000
 NMagM=    2.7928460   0.0000000   2.7928460   0.0000000   2.7928460   2.7928460   0.4037610   0.0000000   2.7928460   2.7928460
 AtZNuc=   1.0000000   6.0000000   1.0000000   6.0000000   1.0000000   1.0000000   7.0000000   6.0000000   1.0000000   1.0000000

  Atom        31          32          33          34          35          36          37          38          39          40
 IAtWgt=          12           1           1          14          32          16          16          12          12          12
 AtmWgt=  12.0000000   1.0078250   1.0078250  14.0030740  31.9720718  15.9949146  15.9949146  12.0000000  12.0000000  12.0000000
 NucSpn=           0           1           1           2           0           0           0           0           0           0
 AtZEff=  -0.0000000  -0.0000000  -0.0000000  -0.0000000  -0.0000000  -0.0000000  -0.0000000  -0.0000000  -0.0000000  -0.0000000
 NQMom=    0.0000000   0.0000000   0.0000000   2.0440000   0.0000000   0.0000000   0.0000000   0.0000000   0.0000000   0.0000000
 NMagM=    0.0000000   2.7928460   2.7928460   0.4037610   0.0000000   0.0000000   0.0000000   0.0000000   0.0000000   0.0000000
 AtZNuc=   6.0000000   1.0000000   1.0000000   7.0000000  16.0000000   8.0000000   8.0000000   6.0000000   6.0000000   6.0000000

  Atom        41          42          43          44          45          46          47          48          49          50
 IAtWgt=          12          12          12           1           1           1           1           1          16           1
 AtmWgt=  12.0000000  12.0000000  12.0000000   1.0078250   1.0078250   1.0078250   1.0078250   1.0078250  15.9949146   1.0078250
 NucSpn=           0           0           0           1           1           1           1           1           0           1
 AtZEff=  -0.0000000  -0.0000000  -0.0000000  -0.0000000  -0.0000000  -0.0000000  -0.0000000  -0.0000000  -0.0000000  -0.0000000
 NQMom=    0.0000000   0.0000000   0.0000000   0.0000000   0.0000000   0.0000000   0.0000000   0.0000000   0.0000000   0.0000000
 NMagM=    0.0000000   0.0000000   0.0000000   2.7928460   2.7928460   2.7928460   2.7928460   2.7928460   0.0000000   2.7928460
 AtZNuc=   6.0000000   6.0000000   6.0000000   1.0000000   1.0000000   1.0000000   1.0000000   1.0000000   8.0000000   1.0000000

  Atom        51          52          53          54          55          56          57          58          59          60
 IAtWgt=          12          16          16           1          12           1           1          12           1           1
 AtmWgt=  12.0000000  15.9949146  15.9949146   1.0078250  12.0000000   1.0078250   1.0078250  12.0000000   1.0078250   1.0078250
 NucSpn=           0           0           0           1           0           1           1           0           1           1
 AtZEff=  -0.0000000  -0.0000000  -0.0000000  -0.0000000  -0.0000000  -0.0000000  -0.0000000  -0.0000000  -0.0000000  -0.0000000
 NQMom=    0.0000000   0.0000000   0.0000000   0.0000000   0.0000000   0.0000000   0.0000000   0.0000000   0.0000000   0.0000000
 NMagM=    0.0000000   0.0000000   0.0000000   2.7928460   0.0000000   2.7928460   2.7928460   0.0000000   2.7928460   2.7928460
 AtZNuc=   6.0000000   8.0000000   8.0000000   1.0000000   6.0000000   1.0000000   1.0000000   6.0000000   1.0000000   1.0000000

  Atom        61          62          63          64          65          66          67          68          69          70
 IAtWgt=          12           1           1           1          12           1           1          12           1           1
 AtmWgt=  12.0000000   1.0078250   1.0078250   1.0078250  12.0000000   1.0078250   1.0078250  12.0000000   1.0078250   1.0078250
 NucSpn=           0           1           1           1           0           1           1           0           1           1
 AtZEff=  -0.0000000  -0.0000000  -0.0000000  -0.0000000  -0.0000000  -0.0000000  -0.0000000  -0.0000000  -0.0000000  -0.0000000
 NQMom=    0.0000000   0.0000000   0.0000000   0.0000000   0.0000000   0.0000000   0.0000000   0.0000000   0.0000000   0.0000000
 NMagM=    0.0000000   2.7928460   2.7928460   2.7928460   0.0000000   2.7928460   2.7928460   0.0000000   2.7928460   2.7928460
 AtZNuc=   6.0000000   1.0000000   1.0000000   1.0000000   6.0000000   1.0000000   1.0000000   6.0000000   1.0000000   1.0000000

  Atom        71          72          73          74          75          76          77
 IAtWgt=           1          12           1           1          12           1           1
 AtmWgt=   1.0078250  12.0000000   1.0078250   1.0078250  12.0000000   1.0078250   1.0078250
 NucSpn=           1           0           1           1           0           1           1
 AtZEff=  -0.0000000  -0.0000000  -0.0000000  -0.0000000  -0.0000000  -0.0000000  -0.0000000
 NQMom=    0.0000000   0.0000000   0.0000000   0.0000000   0.0000000   0.0000000   0.0000000
 NMagM=    2.7928460   0.0000000   2.7928460   2.7928460   0.0000000   2.7928460   2.7928460
 AtZNuc=   1.0000000   6.0000000   1.0000000   1.0000000   6.0000000   1.0000000   1.0000000
 Leave Link  101 at Thu Feb  7 15:07:45 2019, MaxMem=   104857600 cpu:               5.8 elap:               0.3
 (Enter /home/xinyan/g16/l103.exe)

 GradGradGradGradGradGradGradGradGradGradGradGradGradGradGradGradGradGrad
 Berny optimization.
 Initialization pass.
 Trust Radius=3.00D-01 FncErr=1.00D-07 GrdErr=1.00D-07 EigMax=2.50D+02 EigMin=1.00D-04
 Number of steps in this run=      2 maximum allowed number of steps=      2.
 GradGradGradGradGradGradGradGradGradGradGradGradGradGradGradGradGradGrad

 Leave Link  103 at Thu Feb  7 15:07:45 2019, MaxMem=   104857600 cpu:               1.6 elap:               0.1
 (Enter /home/xinyan/g16/l202.exe)
 Stoichiometry    C27H41N3O5S
 Framework group  C1[X(C27H41N3O5S)]
 Deg. of freedom   225
 Full point group                 C1      NOp   1
 Largest Abelian subgroup         C1      NOp   1
 Largest concise Abelian subgroup C1      NOp   1
                         Standard orientation:                         
 ---------------------------------------------------------------------
 Center     Atomic      Atomic             Coordinates (Angstroms)
 Number     Number       Type             X           Y           Z
 ---------------------------------------------------------------------
      1          6           0       -4.782049    0.425271   -0.533145
      2          6           0       -4.974284   -0.861992   -1.340592
      3          6           0       -3.649620   -1.318786   -1.964333
      4          6           0       -2.633643   -1.532004   -0.848320
      5          6           0       -2.395724   -0.219164   -0.057867
      6          6           0       -3.716359    0.259771    0.555034
      7          1           0       -3.777081   -2.240324   -2.542324
      8          1           0       -5.356509   -1.655467   -0.685028
      9          1           0       -5.719108   -0.711624   -2.128349
     10          1           0       -4.476383    1.231360   -1.212862
     11          1           0       -5.731181    0.729240   -0.079825
     12          1           0       -3.011138   -2.291137   -0.156450
     13          1           0       -2.079399    0.538159   -0.786543
     14          1           0       -4.056664   -0.461551    1.305616
     15          1           0       -3.532128    1.215396    1.057397
     16          1           0       -3.303484   -0.535069   -2.651736
     17          7           0       -1.312813   -2.017179   -1.299900
     18          6           0       -0.628792   -1.334150   -2.256172
     19          6           0       -0.614627   -2.808788   -0.442267
     20          6           0        0.727374   -1.382584   -2.353434
     21          1           0       -1.223616   -0.716081   -2.917441
     22          6           0        0.742944   -2.891397   -0.463162
     23          1           0       -1.203781   -3.316184    0.314026
     24          6           0        1.482628   -2.073819   -1.358954
     25          1           0        1.216124   -0.812992   -3.132168
     26          1           0        1.230012   -3.481482    0.300065
     27          7           0        2.803385   -1.961894   -1.274254
     28          6           0        3.532466   -2.404044   -0.075420
     29          1           0        3.421480   -3.482232    0.068690
     30          1           0        3.129318   -1.856909    0.789567
     31          6           0        3.528218   -0.893002   -1.974795
     32          1           0        3.776281   -1.213928   -2.993960
     33          1           0        2.895266   -0.002086   -2.006096
     34          7           0       -1.275191   -0.318242    0.864093
     35         16           0       -1.326524   -1.169196    2.253443
     36          8           0       -2.525493   -2.013345    2.233970
     37          8           0       -0.032936   -1.829773    2.446713
     38          6           0       -0.606866    2.690078    0.040797
     39          6           0       -0.133831    2.208185   -1.189964
     40          6           0       -0.918063    2.300703   -2.338200
     41          6           0       -2.192003    2.867439   -2.291067
     42          6           0       -2.675334    3.343985   -1.075731
     43          6           0       -1.884851    3.255799    0.070520
     44          1           0        0.827494    1.707705   -1.216592
     45          1           0       -0.524153    1.932899   -3.283436
     46          1           0       -2.796965    2.942828   -3.190477
     47          1           0       -3.664510    3.789951   -1.017920
     48          1           0       -2.270321    3.642253    1.012039
     49          8           0        0.701320    1.547750    1.893370
     50          1           0       -0.293531   -0.068360    0.552194
     51          6           0        1.843824    0.824748    1.254304
     52          8           0        1.443714    0.216949    0.156145
     53          8           0        2.230907   -0.058563    2.291032
     54          1           0        1.538954   -0.743969    2.311588
     55          6           0        3.042259    1.802971    1.135019
     56          1           0        2.992835    2.518732    1.965678
     57          1           0        3.939419    1.200286    1.322549
     58          6           0        0.233020    2.737207    1.321086
     59          1           0       -0.399025    3.198387    2.091194
     60          1           0        1.065395    3.437447    1.156017
     61          6           0       -1.485937    0.039478    3.547077
     62          1           0       -0.619996    0.700458    3.451652
     63          1           0       -2.421592    0.580064    3.393751
     64          1           0       -1.494291   -0.492552    4.499804
     65          6           0        3.217021    2.537015   -0.191230
     66          1           0        3.234924    1.806177   -1.006047
     67          1           0        2.363592    3.192238   -0.402503
     68          6           0        4.499040    3.367813   -0.209153
     69          1           0        4.633789    3.888044   -1.162589
     70          1           0        4.485118    4.122754    0.585746
     71          1           0        5.378153    2.736343   -0.040787
     72          6           0        4.967996   -1.991561   -0.380712
     73          1           0        5.565036   -1.893391    0.527698
     74          1           0        5.443814   -2.731474   -1.033713
     75          6           0        4.774968   -0.662736   -1.115359
     76          1           0        4.556233    0.122023   -0.386772
     77          1           0        5.639602   -0.360364   -1.709913
 ---------------------------------------------------------------------
 Rotational constants (GHZ):           0.1545554           0.1010142           0.0908116
 Leave Link  202 at Thu Feb  7 15:07:45 2019, MaxMem=   104857600 cpu:               2.5 elap:               0.1
 (Enter /home/xinyan/g16/l301.exe)
 Standard basis: 6-31G(d) (6D, 7F)
 Ernie: Thresh=  0.10000D-02 Tol=  0.10000D-05 Strict=F.
 There are   626 symmetry adapted cartesian basis functions of A   symmetry.
 There are   626 symmetry adapted basis functions of A   symmetry.
   626 basis functions,  1196 primitive gaussians,   626 cartesian basis functions
   140 alpha electrons      140 beta electrons
       nuclear repulsion energy      4991.7154457503 Hartrees.
 IExCor= 4336 DFT=T Ex+Corr=M062X ExCW=0 ScaHFX=  0.540000
 ScaDFX=  1.000000  1.000000  1.000000  1.000000 ScalE2=  1.000000  1.000000
 IRadAn=      5 IRanWt=     -1 IRanGd=            0 ICorTp=0 IEmpDi=131
 NAtoms=   77 NActive=   77 NUniq=   77 SFac= 1.00D+00 NAtFMM=   60 NAOKFM=T Big=T
 Integral buffers will be    131072 words long.
 Raffenetti 2 integral format.
 Two-electron integral symmetry is turned on.
 R6Disp:  Grimme-D3 Dispersion energy=       -0.0108384775 Hartrees.
 Nuclear repulsion after empirical dispersion term =     4991.7046072727 Hartrees.
 Leave Link  301 at Thu Feb  7 15:07:45 2019, MaxMem=   104857600 cpu:               3.0 elap:               0.2
 (Enter /home/xinyan/g16/l302.exe)
 NPDir=0 NMtPBC=     1 NCelOv=     1 NCel=       1 NClECP=     1 NCelD=      1
         NCelK=      1 NCelE2=     1 NClLst=     1 CellRange=     0.0.
 One-electron integrals computed using PRISM.
 One-electron integral symmetry used in STVInt
 PrsmSu:  requested number of processors reduced to:  23 ShMem   1 Linda.
 NBasis=   626 RedAO= T EigKep=  4.44D-04  NBF=   626
 NBsUse=   626 1.00D-06 EigRej= -1.00D+00 NBFU=   626
 Precomputing XC quadrature grid using
 IXCGrd= 4 IRadAn=           5 IRanWt=          -1 IRanGd=           0 AccXCQ= 0.00D+00.
 Generated NRdTot=       0 NPtTot=           0 NUsed=           0 NTot=          32
 NSgBfM=   621   621   621   621   621 MxSgAt=    77 MxSgA2=    77.
 Leave Link  302 at Thu Feb  7 15:07:50 2019, MaxMem=   104857600 cpu:             103.8 elap:               4.5
 (Enter /home/xinyan/g16/l303.exe)
 DipDrv:  MaxL=1.
 Leave Link  303 at Thu Feb  7 15:07:50 2019, MaxMem=   104857600 cpu:               6.3 elap:               0.3
 (Enter /home/xinyan/g16/l401.exe)
 ExpMin= 1.17D-01 ExpMax= 2.19D+04 ExpMxC= 3.30D+03 IAcc=3 IRadAn=         5 AccDes= 0.00D+00
 Harris functional with IExCor= 1009 and IRadAn=       5 diagonalized for initial guess.
 HarFok:  IExCor= 1009 AccDes= 0.00D+00 IRadAn=         5 IDoV= 1 UseB2=F ITyADJ=14
 ICtDFT=  3500011 ScaDFX=  1.000000  1.000000  1.000000  1.000000
 FoFCou: FMM=F IPFlag=           0 FMFlag=      100000 FMFlg1=        2001
         NFxFlg=           0 DoJE=T BraDBF=F KetDBF=T FulRan=T
         wScrn=  0.000000 ICntrl=       500 IOpCl=  0 I1Cent=   200000004 NGrid=           0
         NMat0=    1 NMatS0=      1 NMatT0=    0 NMatD0=    1 NMtDS0=    0 NMtDT0=    0
 Petite list used in FoFCou.
 Harris En= -1990.52938848606    
 JPrj=0 DoOrth=F DoCkMO=F.
 Leave Link  401 at Thu Feb  7 15:07:54 2019, MaxMem=   104857600 cpu:              99.7 elap:               4.2
 (Enter /home/xinyan/g16/l502.exe)
 Integral symmetry usage will be decided dynamically.
 Closed shell SCF:
 Using DIIS extrapolation, IDIIS=  1040.
 NGot=   104857600 LenX=   104051656 LenY=   103659154
 Requested convergence on RMS density matrix=1.00D-08 within 128 cycles.
 Requested convergence on MAX density matrix=1.00D-06.
 Requested convergence on             energy=1.00D-06.
 No special actions if energy rises.
 Fock matrices will be formed incrementally for  20 cycles.
 Integral accuracy reduced to 1.0D-05 until final iterations.

 Cycle   1  Pass 0  IDiag  1:
 FoFJK:  IHMeth= 1 ICntrl=       0 DoSepK=F KAlg= 0 I1Cent=           0 FoldK=F
 IRaf= 990000000 NMat=       1 IRICut=       1 DoRegI=T DoRafI=F ISym2E= 0 IDoP0=0 IntGTp=1.
 FoFCou: FMM=T IPFlag=           0 FMFlag=      100000 FMFlg1=        2001
         NFxFlg=           0 DoJE=F BraDBF=F KetDBF=F FulRan=T
         wScrn=  0.000000 ICntrl=         0 IOpCl=  0 I1Cent=           0 NGrid=           0
         NMat0=    1 NMatS0=      1 NMatT0=    0 NMatD0=    1 NMtDS0=    0 NMtDT0=    0
 Symmetry not used in FoFCou.
 FMM levels:  10  Number of levels for PrismC:   9
 E= -1990.30039198412    
 DIIS: error= 2.24D-02 at cycle   1 NSaved=   1.
 NSaved= 1 IEnMin= 1 EnMin= -1990.30039198412     IErMin= 1 ErrMin= 2.24D-02
 ErrMax= 2.24D-02  0.00D+00 EMaxC= 1.00D-01 BMatC= 1.24D+00 BMatP= 1.24D+00
 IDIUse=3 WtCom= 7.76D-01 WtEn= 2.24D-01
 Coeff-Com:  0.100D+01
 Coeff-En:   0.100D+01
 Coeff:      0.100D+01
 Gap=     0.368 Goal=   None    Shift=    0.000
 GapD=    0.368 DampG=1.000 DampE=0.500 DampFc=0.5000 IDamp=-1.
 Damping current iteration by 5.00D-01
 RMSDP=3.44D-03 MaxDP=3.46D-01              OVMax= 1.95D-01

 Cycle   2  Pass 0  IDiag  1:
 RMSU=  1.71D-03    CP:  9.88D-01
 E= -1990.81297977155     Delta-E=       -0.512587787432 Rises=F Damp=T
 DIIS: error= 7.51D-03 at cycle   2 NSaved=   2.
 NSaved= 2 IEnMin= 2 EnMin= -1990.81297977155     IErMin= 2 ErrMin= 7.51D-03
 ErrMax= 7.51D-03  0.00D+00 EMaxC= 1.00D-01 BMatC= 9.27D-02 BMatP= 1.24D+00
 IDIUse=3 WtCom= 9.25D-01 WtEn= 7.51D-02
 Coeff-Com: -0.290D-01 0.103D+01
 Coeff-En:   0.000D+00 0.100D+01
 Coeff:     -0.269D-01 0.103D+01
 Gap=     0.262 Goal=   None    Shift=    0.000
 RMSDP=8.54D-04 MaxDP=7.79D-02 DE=-5.13D-01 OVMax= 1.16D-01

 Cycle   3  Pass 0  IDiag  1:
 RMSU=  8.44D-04    CP:  9.81D-01  9.47D-01
 E= -1991.31783038806     Delta-E=       -0.504850616513 Rises=F Damp=F
 DIIS: error= 6.32D-03 at cycle   3 NSaved=   3.
 NSaved= 3 IEnMin= 3 EnMin= -1991.31783038806     IErMin= 3 ErrMin= 6.32D-03
 ErrMax= 6.32D-03  0.00D+00 EMaxC= 1.00D-01 BMatC= 4.91D-02 BMatP= 9.27D-02
 IDIUse=3 WtCom= 9.37D-01 WtEn= 6.32D-02
 Coeff-Com: -0.712D-01 0.440D+00 0.632D+00
 Coeff-En:   0.000D+00 0.000D+00 0.100D+01
 Coeff:     -0.667D-01 0.412D+00 0.655D+00
 Gap=     0.247 Goal=   None    Shift=    0.000
 RMSDP=5.08D-04 MaxDP=3.74D-02 DE=-5.05D-01 OVMax= 5.96D-02

 Cycle   4  Pass 0  IDiag  1:
 RMSU=  3.37D-04    CP:  9.84D-01  1.05D+00  6.05D-01
 E= -1991.34809004559     Delta-E=       -0.030259657523 Rises=F Damp=F
 DIIS: error= 3.88D-03 at cycle   4 NSaved=   4.
 NSaved= 4 IEnMin= 4 EnMin= -1991.34809004559     IErMin= 4 ErrMin= 3.88D-03
 ErrMax= 3.88D-03  0.00D+00 EMaxC= 1.00D-01 BMatC= 1.19D-02 BMatP= 4.91D-02
 IDIUse=3 WtCom= 9.61D-01 WtEn= 3.88D-02
 Coeff-Com: -0.286D-01 0.918D-01 0.357D+00 0.579D+00
 Coeff-En:   0.000D+00 0.000D+00 0.204D+00 0.796D+00
 Coeff:     -0.275D-01 0.882D-01 0.352D+00 0.588D+00
 Gap=     0.228 Goal=   None    Shift=    0.000
 RMSDP=2.04D-04 MaxDP=1.45D-02 DE=-3.03D-02 OVMax= 2.77D-02

 Cycle   5  Pass 0  IDiag  1:
 RMSU=  8.59D-05    CP:  9.83D-01  1.04D+00  7.33D-01  5.62D-01
 E= -1991.35795291997     Delta-E=       -0.009862874388 Rises=F Damp=F
 DIIS: error= 1.00D-03 at cycle   5 NSaved=   5.
 NSaved= 5 IEnMin= 5 EnMin= -1991.35795291997     IErMin= 5 ErrMin= 1.00D-03
 ErrMax= 1.00D-03  0.00D+00 EMaxC= 1.00D-01 BMatC= 5.80D-04 BMatP= 1.19D-02
 IDIUse=3 WtCom= 9.90D-01 WtEn= 1.00D-02
 Coeff-Com: -0.940D-02 0.216D-01 0.134D+00 0.285D+00 0.569D+00
 Coeff-En:   0.000D+00 0.000D+00 0.000D+00 0.000D+00 0.100D+01
 Coeff:     -0.930D-02 0.214D-01 0.132D+00 0.283D+00 0.573D+00
 Gap=     0.229 Goal=   None    Shift=    0.000
 RMSDP=5.07D-05 MaxDP=3.70D-03 DE=-9.86D-03 OVMax= 8.74D-03

 Cycle   6  Pass 0  IDiag  1:
 RMSU=  2.71D-05    CP:  9.83D-01  1.04D+00  7.31D-01  6.35D-01  5.93D-01
 E= -1991.35845686850     Delta-E=       -0.000503948527 Rises=F Damp=F
 DIIS: error= 3.26D-04 at cycle   6 NSaved=   6.
 NSaved= 6 IEnMin= 6 EnMin= -1991.35845686850     IErMin= 6 ErrMin= 3.26D-04
 ErrMax= 3.26D-04  0.00D+00 EMaxC= 1.00D-01 BMatC= 5.77D-05 BMatP= 5.80D-04
 IDIUse=3 WtCom= 9.97D-01 WtEn= 3.26D-03
 EnCoef did     3 forward-backward iterations
 Coeff-Com: -0.185D-02 0.196D-02 0.301D-01 0.828D-01 0.293D+00 0.594D+00
 Coeff-En:   0.000D+00 0.000D+00 0.000D+00 0.000D+00 0.844D-03 0.999D+00
 Coeff:     -0.184D-02 0.196D-02 0.300D-01 0.825D-01 0.292D+00 0.595D+00
 Gap=     0.229 Goal=   None    Shift=    0.000
 RMSDP=1.49D-05 MaxDP=8.81D-04 DE=-5.04D-04 OVMax= 2.36D-03

 Cycle   7  Pass 0  IDiag  1:
 RMSU=  9.33D-06    CP:  9.83D-01  1.04D+00  7.34D-01  6.35D-01  6.76D-01
                    CP:  6.76D-01
 E= -1991.35851115921     Delta-E=       -0.000054290706 Rises=F Damp=F
 DIIS: error= 5.11D-05 at cycle   7 NSaved=   7.
 NSaved= 7 IEnMin= 7 EnMin= -1991.35851115921     IErMin= 7 ErrMin= 5.11D-05
 ErrMax= 5.11D-05  0.00D+00 EMaxC= 1.00D-01 BMatC= 3.88D-06 BMatP= 5.77D-05
 IDIUse=1 WtCom= 1.00D+00 WtEn= 0.00D+00
 Coeff-Com:  0.165D-03-0.132D-02-0.125D-02 0.612D-02 0.719D-01 0.256D+00
 Coeff-Com:  0.668D+00
 Coeff:      0.165D-03-0.132D-02-0.125D-02 0.612D-02 0.719D-01 0.256D+00
 Coeff:      0.668D+00
 Gap=     0.229 Goal=   None    Shift=    0.000
 RMSDP=4.44D-06 MaxDP=2.40D-04 DE=-5.43D-05 OVMax= 5.12D-04

 Initial convergence to 1.0D-05 achieved.  Increase integral accuracy.
 Cycle   8  Pass 1  IDiag  1:
 E= -1991.35858289575     Delta-E=       -0.000071736539 Rises=F Damp=F
 DIIS: error= 2.20D-04 at cycle   1 NSaved=   1.
 NSaved= 1 IEnMin= 1 EnMin= -1991.35858289575     IErMin= 1 ErrMin= 2.20D-04
 ErrMax= 2.20D-04  0.00D+00 EMaxC= 1.00D-01 BMatC= 1.34D-05 BMatP= 1.34D-05
 IDIUse=3 WtCom= 9.98D-01 WtEn= 2.20D-03
 Coeff-Com:  0.100D+01
 Coeff-En:   0.100D+01
 Coeff:      0.100D+01
 Gap=     0.229 Goal=   None    Shift=    0.000
 RMSDP=4.44D-06 MaxDP=2.40D-04 DE=-7.17D-05 OVMax= 4.49D-04

 Cycle   9  Pass 1  IDiag  1:
 RMSU=  7.33D-05    CP:  1.00D+00
 E= -1991.35859489376     Delta-E=       -0.000011998018 Rises=F Damp=F
 DIIS: error= 2.14D-05 at cycle   2 NSaved=   2.
 NSaved= 2 IEnMin= 2 EnMin= -1991.35859489376     IErMin= 2 ErrMin= 2.14D-05
 ErrMax= 2.14D-05  0.00D+00 EMaxC= 1.00D-01 BMatC= 7.81D-07 BMatP= 1.34D-05
 IDIUse=1 WtCom= 1.00D+00 WtEn= 0.00D+00
 Coeff-Com:  0.677D-01 0.932D+00
 Coeff:      0.677D-01 0.932D+00
 Gap=     0.229 Goal=   None    Shift=    0.000
 RMSDP=3.84D-06 MaxDP=2.01D-04 DE=-1.20D-05 OVMax= 3.52D-04

 Cycle  10  Pass 1  IDiag  1:
 RMSU=  3.23D-06    CP:  1.00D+00  1.03D+00
 E= -1991.35859453990     Delta-E=        0.000000353868 Rises=F Damp=F
 DIIS: error= 3.54D-05 at cycle   3 NSaved=   3.
 NSaved= 3 IEnMin= 2 EnMin= -1991.35859489376     IErMin= 2 ErrMin= 2.14D-05
 ErrMax= 3.54D-05  0.00D+00 EMaxC= 1.00D-01 BMatC= 1.24D-06 BMatP= 7.81D-07
 IDIUse=1 WtCom= 1.00D+00 WtEn= 0.00D+00
 Coeff-Com: -0.144D-01 0.563D+00 0.452D+00
 Coeff:     -0.144D-01 0.563D+00 0.452D+00
 Gap=     0.229 Goal=   None    Shift=    0.000
 RMSDP=1.82D-06 MaxDP=1.20D-04 DE= 3.54D-07 OVMax= 2.18D-04

 Cycle  11  Pass 1  IDiag  1:
 RMSU=  6.18D-07    CP:  1.00D+00  1.03D+00  4.78D-01
 E= -1991.35859557253     Delta-E=       -0.000001032633 Rises=F Damp=F
 DIIS: error= 3.95D-06 at cycle   4 NSaved=   4.
 NSaved= 4 IEnMin= 4 EnMin= -1991.35859557253     IErMin= 4 ErrMin= 3.95D-06
 ErrMax= 3.95D-06  0.00D+00 EMaxC= 1.00D-01 BMatC= 1.10D-08 BMatP= 7.81D-07
 IDIUse=1 WtCom= 1.00D+00 WtEn= 0.00D+00
 Coeff-Com: -0.798D-02 0.257D+00 0.216D+00 0.535D+00
 Coeff:     -0.798D-02 0.257D+00 0.216D+00 0.535D+00
 Gap=     0.229 Goal=   None    Shift=    0.000
 RMSDP=2.16D-07 MaxDP=1.15D-05 DE=-1.03D-06 OVMax= 3.50D-05

 Cycle  12  Pass 1  IDiag  1:
 RMSU=  1.90D-07    CP:  1.00D+00  1.03D+00  4.96D-01  8.66D-01
 E= -1991.35859558282     Delta-E=       -0.000000010294 Rises=F Damp=F
 DIIS: error= 1.49D-06 at cycle   5 NSaved=   5.
 NSaved= 5 IEnMin= 5 EnMin= -1991.35859558282     IErMin= 5 ErrMin= 1.49D-06
 ErrMax= 1.49D-06  0.00D+00 EMaxC= 1.00D-01 BMatC= 9.34D-10 BMatP= 1.10D-08
 IDIUse=1 WtCom= 1.00D+00 WtEn= 0.00D+00
 Coeff-Com: -0.103D-02 0.192D-01 0.176D-01 0.215D+00 0.749D+00
 Coeff:     -0.103D-02 0.192D-01 0.176D-01 0.215D+00 0.749D+00
 Gap=     0.229 Goal=   None    Shift=    0.000
 RMSDP=8.37D-08 MaxDP=4.96D-06 DE=-1.03D-08 OVMax= 9.14D-06

 Cycle  13  Pass 1  IDiag  1:
 RMSU=  6.45D-08    CP:  1.00D+00  1.03D+00  4.97D-01  9.37D-01  8.60D-01
 E= -1991.35859558363     Delta-E=       -0.000000000811 Rises=F Damp=F
 DIIS: error= 4.83D-07 at cycle   6 NSaved=   6.
 NSaved= 6 IEnMin= 6 EnMin= -1991.35859558363     IErMin= 6 ErrMin= 4.83D-07
 ErrMax= 4.83D-07  0.00D+00 EMaxC= 1.00D-01 BMatC= 2.38D-10 BMatP= 9.34D-10
 IDIUse=1 WtCom= 1.00D+00 WtEn= 0.00D+00
 Coeff-Com:  0.747D-03-0.315D-01-0.263D-01 0.381D-01 0.411D+00 0.608D+00
 Coeff:      0.747D-03-0.315D-01-0.263D-01 0.381D-01 0.411D+00 0.608D+00
 Gap=     0.229 Goal=   None    Shift=    0.000
 RMSDP=3.50D-08 MaxDP=1.69D-06 DE=-8.11D-10 OVMax= 5.53D-06

 Cycle  14  Pass 1  IDiag  1:
 RMSU=  2.48D-08    CP:  1.00D+00  1.03D+00  4.97D-01  9.57D-01  9.44D-01
                    CP:  7.87D-01
 E= -1991.35859558391     Delta-E=       -0.000000000278 Rises=F Damp=F
 DIIS: error= 1.57D-07 at cycle   7 NSaved=   7.
 NSaved= 7 IEnMin= 7 EnMin= -1991.35859558391     IErMin= 7 ErrMin= 1.57D-07
 ErrMax= 1.57D-07  0.00D+00 EMaxC= 1.00D-01 BMatC= 1.62D-11 BMatP= 2.38D-10
 IDIUse=1 WtCom= 1.00D+00 WtEn= 0.00D+00
 Coeff-Com:  0.405D-03-0.150D-01-0.130D-01 0.230D-03 0.108D+00 0.264D+00
 Coeff-Com:  0.655D+00
 Coeff:      0.405D-03-0.150D-01-0.130D-01 0.230D-03 0.108D+00 0.264D+00
 Coeff:      0.655D+00
 Gap=     0.229 Goal=   None    Shift=    0.000
 RMSDP=9.46D-09 MaxDP=4.90D-07 DE=-2.78D-10 OVMax= 1.41D-06

 SCF Done:  E(RM062X) =  -1991.35859558     A.U. after   14 cycles
            NFock= 14  Conv=0.95D-08     -V/T= 2.0076
 KE= 1.976422578392D+03 PE=-1.463574527101D+04 EE= 5.676259489759D+03
 Leave Link  502 at Thu Feb  7 15:10:21 2019, MaxMem=   104857600 cpu:            3526.1 elap:             147.2
 (Enter /home/xinyan/g16/l601.exe)
 Copying SCF densities to generalized density rwf, IOpCl= 0 IROHF=0.

 **********************************************************************

            Population analysis using the SCF density.

 **********************************************************************

 Orbital symmetries:
       Occupied  (A) (A) (A) (A) (A) (A) (A) (A) (A) (A) (A) (A)
                 (A) (A) (A) (A) (A) (A) (A) (A) (A) (A) (A) (A)
                 (A) (A) (A) (A) (A) (A) (A) (A) (A) (A) (A) (A)
                 (A) (A) (A) (A) (A) (A) (A) (A) (A) (A) (A) (A)
                 (A) (A) (A) (A) (A) (A) (A) (A) (A) (A) (A) (A)
                 (A) (A) (A) (A) (A) (A) (A) (A) (A) (A) (A) (A)
                 (A) (A) (A) (A) (A) (A) (A) (A) (A) (A) (A) (A)
                 (A) (A) (A) (A) (A) (A) (A) (A) (A) (A) (A) (A)
                 (A) (A) (A) (A) (A) (A) (A) (A) (A) (A) (A) (A)
                 (A) (A) (A) (A) (A) (A) (A) (A) (A) (A) (A) (A)
                 (A) (A) (A) (A) (A) (A) (A) (A) (A) (A) (A) (A)
                 (A) (A) (A) (A) (A) (A) (A) (A)
       Virtual   (A) (A) (A) (A) (A) (A) (A) (A) (A) (A) (A) (A)
                 (A) (A) (A) (A) (A) (A) (A) (A) (A) (A) (A) (A)
                 (A) (A) (A) (A) (A) (A) (A) (A) (A) (A) (A) (A)
                 (A) (A) (A) (A) (A) (A) (A) (A) (A) (A) (A) (A)
                 (A) (A) (A) (A) (A) (A) (A) (A) (A) (A) (A) (A)
                 (A) (A) (A) (A) (A) (A) (A) (A) (A) (A) (A) (A)
                 (A) (A) (A) (A) (A) (A) (A) (A) (A) (A) (A) (A)
                 (A) (A) (A) (A) (A) (A) (A) (A) (A) (A) (A) (A)
                 (A) (A) (A) (A) (A) (A) (A) (A) (A) (A) (A) (A)
                 (A) (A) (A) (A) (A) (A) (A) (A) (A) (A) (A) (A)
                 (A) (A) (A) (A) (A) (A) (A) (A) (A) (A) (A) (A)
                 (A) (A) (A) (A) (A) (A) (A) (A) (A) (A) (A) (A)
                 (A) (A) (A) (A) (A) (A) (A) (A) (A) (A) (A) (A)
                 (A) (A) (A) (A) (A) (A) (A) (A) (A) (A) (A) (A)
                 (A) (A) (A) (A) (A) (A) (A) (A) (A) (A) (A) (A)
                 (A) (A) (A) (A) (A) (A) (A) (A) (A) (A) (A) (A)
                 (A) (A) (A) (A) (A) (A) (A) (A) (A) (A) (A) (A)
                 (A) (A) (A) (A) (A) (A) (A) (A) (A) (A) (A) (A)
                 (A) (A) (A) (A) (A) (A) (A) (A) (A) (A) (A) (A)
                 (A) (A) (A) (A) (A) (A) (A) (A) (A) (A) (A) (A)
                 (A) (A) (A) (A) (A) (A) (A) (A) (A) (A) (A) (A)
                 (A) (A) (A) (A) (A) (A) (A) (A) (A) (A) (A) (A)
                 (A) (A) (A) (A) (A) (A) (A) (A) (A) (A) (A) (A)
                 (A) (A) (A) (A) (A) (A) (A) (A) (A) (A) (A) (A)
                 (A) (A) (A) (A) (A) (A) (A) (A) (A) (A) (A) (A)
                 (A) (A) (A) (A) (A) (A) (A) (A) (A) (A) (A) (A)
                 (A) (A) (A) (A) (A) (A) (A) (A) (A) (A) (A) (A)
                 (A) (A) (A) (A) (A) (A) (A) (A) (A) (A) (A) (A)
                 (A) (A) (A) (A) (A) (A) (A) (A) (A) (A) (A) (A)
                 (A) (A) (A) (A) (A) (A) (A) (A) (A) (A) (A) (A)
                 (A) (A) (A) (A) (A) (A) (A) (A) (A) (A) (A) (A)
                 (A) (A) (A) (A) (A) (A) (A) (A) (A) (A) (A) (A)
                 (A) (A) (A) (A) (A) (A) (A) (A) (A) (A) (A) (A)
                 (A) (A) (A) (A) (A) (A) (A) (A) (A) (A) (A) (A)
                 (A) (A) (A) (A) (A) (A) (A) (A) (A) (A) (A) (A)
                 (A) (A) (A) (A) (A) (A) (A) (A) (A) (A) (A) (A)
                 (A) (A) (A) (A) (A) (A) (A) (A) (A) (A) (A) (A)
                 (A) (A) (A) (A) (A) (A) (A) (A) (A) (A) (A) (A)
                 (A) (A) (A) (A) (A) (A) (A) (A) (A) (A) (A) (A)
                 (A) (A) (A) (A) (A) (A) (A) (A) (A) (A) (A) (A)
                 (A) (A) (A) (A) (A) (A)
 The electronic state is 1-A.
 Alpha  occ. eigenvalues --  -90.14161 -19.61767 -19.61745 -19.58700 -19.56701
 Alpha  occ. eigenvalues --  -19.51277 -14.85164 -14.80449 -14.75715 -10.63417
 Alpha  occ. eigenvalues --  -10.62785 -10.62261 -10.62180 -10.60718 -10.59331
 Alpha  occ. eigenvalues --  -10.58483 -10.57994 -10.57942 -10.57151 -10.56893
 Alpha  occ. eigenvalues --  -10.56685 -10.55653 -10.55599 -10.55119 -10.54855
 Alpha  occ. eigenvalues --  -10.54834 -10.54780 -10.54718 -10.54567 -10.54395
 Alpha  occ. eigenvalues --  -10.54317 -10.54310 -10.53077 -10.51529 -10.51474
 Alpha  occ. eigenvalues --  -10.49708  -8.45138  -6.37354  -6.37332  -6.37174
 Alpha  occ. eigenvalues --   -1.21985  -1.13598  -1.13502  -1.10241  -1.09347
 Alpha  occ. eigenvalues --   -1.05887  -1.01718  -0.99328  -0.95737  -0.94986
 Alpha  occ. eigenvalues --   -0.93489  -0.90295  -0.88753  -0.85898  -0.85795
 Alpha  occ. eigenvalues --   -0.84821  -0.84702  -0.84245  -0.83054  -0.82686
 Alpha  occ. eigenvalues --   -0.76663  -0.76290  -0.75833  -0.74376  -0.72780
 Alpha  occ. eigenvalues --   -0.71637  -0.68327  -0.68237  -0.67938  -0.67199
 Alpha  occ. eigenvalues --   -0.66751  -0.65227  -0.64868  -0.63525  -0.60563
 Alpha  occ. eigenvalues --   -0.60403  -0.59787  -0.58999  -0.57806  -0.57590
 Alpha  occ. eigenvalues --   -0.57170  -0.56435  -0.55776  -0.55171  -0.54193
 Alpha  occ. eigenvalues --   -0.53537  -0.52653  -0.52449  -0.52423  -0.51905
 Alpha  occ. eigenvalues --   -0.51547  -0.51032  -0.50787  -0.49872  -0.49568
 Alpha  occ. eigenvalues --   -0.49159  -0.48830  -0.48207  -0.48135  -0.48028
 Alpha  occ. eigenvalues --   -0.47665  -0.47459  -0.46907  -0.46441  -0.46102
 Alpha  occ. eigenvalues --   -0.44883  -0.44732  -0.44139  -0.43873  -0.43259
 Alpha  occ. eigenvalues --   -0.42503  -0.42125  -0.41418  -0.41336  -0.41127
 Alpha  occ. eigenvalues --   -0.40899  -0.40476  -0.39994  -0.39818  -0.39334
 Alpha  occ. eigenvalues --   -0.39256  -0.39064  -0.38446  -0.37946  -0.37591
 Alpha  occ. eigenvalues --   -0.37391  -0.36742  -0.36564  -0.35733  -0.34901
 Alpha  occ. eigenvalues --   -0.34386  -0.33954  -0.31676  -0.31082  -0.29768
 Alpha  occ. eigenvalues --   -0.28881  -0.28599  -0.27639  -0.24872  -0.24428
 Alpha virt. eigenvalues --   -0.01514   0.00412   0.03559   0.03762   0.10144
 Alpha virt. eigenvalues --    0.11005   0.11653   0.12185   0.13182   0.13519
 Alpha virt. eigenvalues --    0.14210   0.14616   0.14764   0.15237   0.15601
 Alpha virt. eigenvalues --    0.16046   0.16864   0.16961   0.17218   0.17659
 Alpha virt. eigenvalues --    0.18048   0.18331   0.18500   0.18834   0.18926
 Alpha virt. eigenvalues --    0.19309   0.19720   0.19919   0.20121   0.20290
 Alpha virt. eigenvalues --    0.20643   0.20979   0.21062   0.21588   0.21674
 Alpha virt. eigenvalues --    0.22188   0.22547   0.22874   0.23467   0.23646
 Alpha virt. eigenvalues --    0.23876   0.24204   0.24517   0.24739   0.24972
 Alpha virt. eigenvalues --    0.25269   0.25538   0.25999   0.26383   0.26811
 Alpha virt. eigenvalues --    0.27099   0.27817   0.27863   0.28617   0.29017
 Alpha virt. eigenvalues --    0.29382   0.29609   0.29881   0.30792   0.30933
 Alpha virt. eigenvalues --    0.31351   0.31684   0.32275   0.32699   0.33133
 Alpha virt. eigenvalues --    0.33670   0.34581   0.35205   0.35500   0.35793
 Alpha virt. eigenvalues --    0.36505   0.37304   0.37751   0.38016   0.38860
 Alpha virt. eigenvalues --    0.39936   0.40334   0.40778   0.42823   0.43276
 Alpha virt. eigenvalues --    0.44483   0.44777   0.46938   0.48110   0.48827
 Alpha virt. eigenvalues --    0.49845   0.51220   0.52719   0.53424   0.54959
 Alpha virt. eigenvalues --    0.55156   0.55356   0.55990   0.56530   0.56888
 Alpha virt. eigenvalues --    0.57531   0.58315   0.58596   0.58683   0.59414
 Alpha virt. eigenvalues --    0.59518   0.59941   0.60351   0.60468   0.60558
 Alpha virt. eigenvalues --    0.61187   0.61422   0.62396   0.62637   0.62883
 Alpha virt. eigenvalues --    0.63791   0.64063   0.64601   0.65085   0.65560
 Alpha virt. eigenvalues --    0.66094   0.66683   0.66950   0.67450   0.67898
 Alpha virt. eigenvalues --    0.68424   0.69015   0.69146   0.69947   0.70642
 Alpha virt. eigenvalues --    0.71051   0.71461   0.71741   0.72987   0.73526
 Alpha virt. eigenvalues --    0.73575   0.74215   0.74721   0.74932   0.75740
 Alpha virt. eigenvalues --    0.76638   0.77320   0.77805   0.78646   0.78989
 Alpha virt. eigenvalues --    0.79489   0.79804   0.80219   0.81040   0.81375
 Alpha virt. eigenvalues --    0.81717   0.82072   0.82820   0.83798   0.84499
 Alpha virt. eigenvalues --    0.84889   0.85374   0.85714   0.86156   0.87168
 Alpha virt. eigenvalues --    0.87712   0.88450   0.89027   0.89451   0.89600
 Alpha virt. eigenvalues --    0.89750   0.90146   0.90553   0.90994   0.91252
 Alpha virt. eigenvalues --    0.91736   0.92288   0.92835   0.93021   0.93258
 Alpha virt. eigenvalues --    0.93639   0.94278   0.94766   0.95094   0.95388
 Alpha virt. eigenvalues --    0.95861   0.96112   0.96607   0.96705   0.97053
 Alpha virt. eigenvalues --    0.97312   0.97954   0.98088   0.98396   0.98445
 Alpha virt. eigenvalues --    0.99150   0.99673   0.99778   1.00502   1.00792
 Alpha virt. eigenvalues --    1.01347   1.01900   1.02187   1.02784   1.03031
 Alpha virt. eigenvalues --    1.03190   1.04227   1.04654   1.04688   1.05624
 Alpha virt. eigenvalues --    1.05899   1.07019   1.07638   1.08308   1.09058
 Alpha virt. eigenvalues --    1.10315   1.10695   1.11613   1.11819   1.11858
 Alpha virt. eigenvalues --    1.13343   1.13608   1.14582   1.15105   1.15562
 Alpha virt. eigenvalues --    1.16895   1.17742   1.18407   1.18560   1.18917
 Alpha virt. eigenvalues --    1.19902   1.20994   1.21188   1.21723   1.22092
 Alpha virt. eigenvalues --    1.22831   1.23682   1.24109   1.24583   1.25641
 Alpha virt. eigenvalues --    1.25975   1.28058   1.29066   1.29401   1.30572
 Alpha virt. eigenvalues --    1.31380   1.31556   1.32119   1.32501   1.33726
 Alpha virt. eigenvalues --    1.34064   1.34423   1.35093   1.36183   1.37045
 Alpha virt. eigenvalues --    1.37368   1.38395   1.39215   1.40779   1.41360
 Alpha virt. eigenvalues --    1.41758   1.42275   1.43841   1.44605   1.46175
 Alpha virt. eigenvalues --    1.47412   1.47929   1.48424   1.49174   1.49781
 Alpha virt. eigenvalues --    1.51045   1.51930   1.52463   1.52810   1.54496
 Alpha virt. eigenvalues --    1.54809   1.55094   1.55981   1.57140   1.57216
 Alpha virt. eigenvalues --    1.57457   1.58540   1.60571   1.61068   1.61262
 Alpha virt. eigenvalues --    1.61948   1.62854   1.63724   1.65643   1.67393
 Alpha virt. eigenvalues --    1.69020   1.69677   1.70279   1.72213   1.72759
 Alpha virt. eigenvalues --    1.74332   1.74758   1.75835   1.77265   1.77933
 Alpha virt. eigenvalues --    1.78557   1.79406   1.80416   1.80902   1.81846
 Alpha virt. eigenvalues --    1.84368   1.84637   1.85171   1.85809   1.85922
 Alpha virt. eigenvalues --    1.86319   1.87018   1.87590   1.87979   1.89043
 Alpha virt. eigenvalues --    1.89968   1.90076   1.90400   1.91008   1.91890
 Alpha virt. eigenvalues --    1.92722   1.93834   1.94210   1.94682   1.94760
 Alpha virt. eigenvalues --    1.95415   1.95900   1.96434   1.97050   1.97771
 Alpha virt. eigenvalues --    1.98627   1.99094   1.99226   2.00018   2.00912
 Alpha virt. eigenvalues --    2.01841   2.02199   2.02347   2.02737   2.04097
 Alpha virt. eigenvalues --    2.04469   2.06196   2.06337   2.06956   2.07421
 Alpha virt. eigenvalues --    2.07662   2.08474   2.08861   2.09212   2.09482
 Alpha virt. eigenvalues --    2.09888   2.10630   2.11830   2.11923   2.12886
 Alpha virt. eigenvalues --    2.12931   2.14213   2.14439   2.15238   2.15956
 Alpha virt. eigenvalues --    2.16296   2.16728   2.17179   2.18698   2.19103
 Alpha virt. eigenvalues --    2.19977   2.20361   2.20735   2.21538   2.22367
 Alpha virt. eigenvalues --    2.23165   2.23400   2.23621   2.23768   2.24596
 Alpha virt. eigenvalues --    2.25471   2.25950   2.26454   2.27476   2.28465
 Alpha virt. eigenvalues --    2.28927   2.30263   2.30862   2.30898   2.31739
 Alpha virt. eigenvalues --    2.32336   2.34006   2.34768   2.35199   2.35634
 Alpha virt. eigenvalues --    2.36084   2.37460   2.37673   2.38605   2.38729
 Alpha virt. eigenvalues --    2.39069   2.40316   2.40941   2.41571   2.42772
 Alpha virt. eigenvalues --    2.43326   2.44491   2.45382   2.46036   2.47013
 Alpha virt. eigenvalues --    2.49600   2.50696   2.51841   2.52265   2.52956
 Alpha virt. eigenvalues --    2.54290   2.54556   2.56181   2.57056   2.59961
 Alpha virt. eigenvalues --    2.60903   2.61851   2.62351   2.63138   2.64020
 Alpha virt. eigenvalues --    2.64690   2.64866   2.65761   2.67264   2.68336
 Alpha virt. eigenvalues --    2.68860   2.69618   2.70495   2.71700   2.72783
 Alpha virt. eigenvalues --    2.73626   2.74442   2.76274   2.76726   2.77474
 Alpha virt. eigenvalues --    2.79541   2.80229   2.80714   2.80787   2.81583
 Alpha virt. eigenvalues --    2.83466   2.85496   2.86209   2.87200   2.88373
 Alpha virt. eigenvalues --    2.89179   2.91003   2.92552   2.93957   2.96932
 Alpha virt. eigenvalues --    2.99686   3.00331   3.03176   3.05225   3.10560
 Alpha virt. eigenvalues --    3.14755   3.16323   3.23875   3.41302   3.42825
 Alpha virt. eigenvalues --    3.96764   4.02226   4.04882   4.09479   4.11025
 Alpha virt. eigenvalues --    4.15763   4.17221   4.18096   4.18729   4.19684
 Alpha virt. eigenvalues --    4.21162   4.23207   4.24511   4.26616   4.27498
 Alpha virt. eigenvalues --    4.29735   4.32716   4.33257   4.34718   4.35160
 Alpha virt. eigenvalues --    4.39977   4.40903   4.41918   4.43810   4.47636
 Alpha virt. eigenvalues --    4.50128   4.55771   4.58176   4.59218   4.61602
 Alpha virt. eigenvalues --    4.64015   4.66093   4.73774   4.75575   4.76905
 Alpha virt. eigenvalues --    4.80287
          Condensed to atoms (all electrons):
 Mulliken charges:
               1
     1  C   -0.306247
     2  C   -0.307087
     3  C   -0.309361
     4  C   -0.060050
     5  C    0.056871
     6  C   -0.311619
     7  H    0.173918
     8  H    0.162794
     9  H    0.165443
    10  H    0.151065
    11  H    0.163248
    12  H    0.208921
    13  H    0.172930
    14  H    0.192993
    15  H    0.163587
    16  H    0.154169
    17  N   -0.430637
    18  C    0.067640
    19  C    0.063663
    20  C   -0.202199
    21  H    0.206557
    22  C   -0.209034
    23  H    0.245424
    24  C    0.446308
    25  H    0.191861
    26  H    0.211565
    27  N   -0.526395
    28  C   -0.171491
    29  H    0.169785
    30  H    0.230516
    31  C   -0.154686
    32  H    0.166152
    33  H    0.204825
    34  N   -0.816194
    35  S    1.253634
    36  O   -0.612229
    37  O   -0.606885
    38  C    0.085572
    39  C   -0.183307
    40  C   -0.189609
    41  C   -0.171011
    42  C   -0.163703
    43  C   -0.212158
    44  H    0.210091
    45  H    0.140655
    46  H    0.154884
    47  H    0.158587
    48  H    0.152487
    49  O   -0.549912
    50  H    0.448912
    51  C    0.725359
    52  O   -0.722754
    53  O   -0.718049
    54  H    0.445040
    55  C   -0.338535
    56  H    0.149084
    57  H    0.150930
    58  C   -0.091934
    59  H    0.140271
    60  H    0.147618
    61  C   -0.663216
    62  H    0.273087
    63  H    0.196276
    64  H    0.217527
    65  C   -0.293316
    66  H    0.137311
    67  H    0.146254
    68  C   -0.473757
    69  H    0.148974
    70  H    0.154622
    71  H    0.144713
    72  C   -0.331852
    73  H    0.187303
    74  H    0.163061
    75  C   -0.343364
    76  H    0.196914
    77  H    0.171189
 Sum of Mulliken charges =  -0.00000
 Mulliken charges with hydrogens summed into heavy atoms:
               1
     1  C    0.008066
     2  C    0.021150
     3  C    0.018725
     4  C    0.148871
     5  C    0.229801
     6  C    0.044962
    17  N   -0.430637
    18  C    0.274197
    19  C    0.309086
    20  C   -0.010337
    22  C    0.002531
    24  C    0.446308
    27  N   -0.526395
    28  C    0.228811
    31  C    0.216291
    34  N   -0.367282
    35  S    1.253634
    36  O   -0.612229
    37  O   -0.606885
    38  C    0.085572
    39  C    0.026784
    40  C   -0.048954
    41  C   -0.016127
    42  C   -0.005116
    43  C   -0.059671
    49  O   -0.549912
    51  C    0.725359
    52  O   -0.722754
    53  O   -0.273009
    55  C   -0.038520
    58  C    0.195955
    61  C    0.023674
    65  C   -0.009751
    68  C   -0.025449
    72  C    0.018511
    75  C    0.024738
 Electronic spatial extent (au):  <R**2>=          14329.0848
 Charge=              0.0000 electrons
 Dipole moment (field-independent basis, Debye):
    X=             -2.4969    Y=             -1.8895    Z=             -6.3770  Tot=              7.1043
 Quadrupole moment (field-independent basis, Debye-Ang):
   XX=           -205.5902   YY=           -222.9436   ZZ=           -219.8311
   XY=            -12.3164   XZ=             -5.3646   YZ=             10.0159
 Traceless Quadrupole moment (field-independent basis, Debye-Ang):
   XX=             10.5314   YY=             -6.8219   ZZ=             -3.7095
   XY=            -12.3164   XZ=             -5.3646   YZ=             10.0159
 Octapole moment (field-independent basis, Debye-Ang**2):
  XXX=             14.9689  YYY=            -51.1611  ZZZ=             11.0352  XYY=             10.2259
  XXY=            -24.0604  XXZ=            -38.1647  XZZ=            -24.4907  YZZ=             12.9897
  YYZ=             17.7878  XYZ=            -19.3558
 Hexadecapole moment (field-independent basis, Debye-Ang**3):
 XXXX=          -9841.9401 YYYY=          -5423.3962 ZZZZ=          -3543.5993 XXXY=           -203.7005
 XXXZ=            -10.4660 YYYX=            -68.5889 YYYZ=             57.2650 ZZZX=           -106.5463
 ZZZY=             -8.4372 XXYY=          -2554.9217 XXZZ=          -2316.8623 YYZZ=          -1596.4075
 XXYZ=             47.1010 YYXZ=             51.7601 ZZXY=            -50.2600
 N-N= 4.991704607273D+03 E-N=-1.463574531183D+04  KE= 1.976422578392D+03
 No NMR shielding tensors so no spin-rotation constants.
 Leave Link  601 at Thu Feb  7 15:10:23 2019, MaxMem=   104857600 cpu:              29.2 elap:               1.3
 (Enter /home/xinyan/g16/l701.exe)
 ... and contract with generalized density number  0.
 Compute integral first derivatives.
 R6Disp: Adding Grimme-D3 dispersion energy 1st derivatives to the gradient.
 Leave Link  701 at Thu Feb  7 15:10:24 2019, MaxMem=   104857600 cpu:              26.2 elap:               1.2
 (Enter /home/xinyan/g16/l702.exe)
 L702 exits ... SP integral derivatives will be done elsewhere.
 Leave Link  702 at Thu Feb  7 15:10:24 2019, MaxMem=   104857600 cpu:               1.4 elap:               0.1
 (Enter /home/xinyan/g16/l703.exe)
 Integral derivatives from FoFJK, PRISM(SPDF).
 Compute integral first derivatives, UseDBF=F ICtDFT=           0.
 Calling FoFJK, ICntrl=      2127 FMM=T ISym2X=0 I1Cent= 0 IOpClX= 0 NMat=1 NMatS=1 NMatT=0.
 FoFJK:  IHMeth= 1 ICntrl=    2127 DoSepK=F KAlg= 0 I1Cent=           0 FoldK=F
 IRaf=         0 NMat=       1 IRICut=       1 DoRegI=T DoRafI=F ISym2E= 0 IDoP0=0 IntGTp=1.
 FoFCou: FMM=T IPFlag=           0 FMFlag=      100000 FMFlg1=        2001
         NFxFlg=           0 DoJE=F BraDBF=F KetDBF=F FulRan=T
         wScrn=  0.000000 ICntrl=      2127 IOpCl=  0 I1Cent=           0 NGrid=           0
         NMat0=    1 NMatS0=      1 NMatT0=    0 NMatD0=    1 NMtDS0=    0 NMtDT0=    0
 Symmetry not used in FoFCou.
 FMM levels:  10  Number of levels for PrismC:   9
 Leave Link  703 at Thu Feb  7 15:10:59 2019, MaxMem=   104857600 cpu:             834.5 elap:              34.9
 (Enter /home/xinyan/g16/l716.exe)
 Dipole        =-9.82362917D-01-7.43389804D-01-2.50891395D+00
 ***** Axes restored to original set *****
 -------------------------------------------------------------------
 Center     Atomic                   Forces (Hartrees/Bohr)
 Number     Number              X              Y              Z
 -------------------------------------------------------------------
      1        6          -0.000002777   -0.000017727   -0.000006630
      2        6           0.000022367   -0.000001777    0.000013617
      3        6           0.000017405    0.000016528    0.000002700
      4        6           0.000012316    0.000014483   -0.000016462
      5        6           0.000012546   -0.000002238    0.000017433
      6        6          -0.000021863   -0.000003460    0.000002038
      7        1           0.000017149    0.000002358   -0.000027759
      8        1           0.000003969   -0.000000384   -0.000035025
      9        1           0.000012493   -0.000000081   -0.000022018
     10        1           0.000004736    0.000031850   -0.000028509
     11        1          -0.000004710   -0.000012153   -0.000013353
     12        1           0.000000472   -0.000035445    0.000015875
     13        1          -0.000001536    0.000015158   -0.000009267
     14        1          -0.000009474   -0.000032331    0.000005236
     15        1           0.000003473   -0.000001488   -0.000001717
     16        1           0.000010064    0.000004635   -0.000014882
     17        7           0.000019504    0.000030260   -0.000018916
     18        6          -0.000002333   -0.000016759   -0.000002633
     19        6           0.000000485    0.000023428    0.000000992
     20        6           0.000016334    0.000001736   -0.000021861
     21        1           0.000012387   -0.000009141   -0.000009973
     22        6           0.000010617    0.000004526    0.000024017
     23        1           0.000003471    0.000008150    0.000010328
     24        6          -0.000004000   -0.000021726    0.000016577
     25        1           0.000009765    0.000000716   -0.000004974
     26        1           0.000016114    0.000022846    0.000017057
     27        7           0.000035241    0.000028256    0.000010744
     28        6           0.000003054    0.000032513    0.000025532
     29        1           0.000009723    0.000029945    0.000030947
     30        1           0.000018257    0.000030504    0.000002183
     31        6           0.000009053   -0.000014683   -0.000026384
     32        1           0.000009668   -0.000003654    0.000006250
     33        1          -0.000008911    0.000028231    0.000011639
     34        7          -0.000095720   -0.000012043   -0.000003353
     35       16          -0.000029113   -0.000007700   -0.000088537
     36        8           0.000010494   -0.000005677   -0.000015404
     37        8           0.000012109   -0.000019714    0.000002976
     38        6          -0.000000052    0.000027794    0.000059356
     39        6          -0.000005514    0.000014263    0.000000323
     40        6          -0.000022154    0.000026310    0.000019988
     41        6          -0.000019220    0.000003535    0.000012153
     42        6          -0.000019175    0.000001852    0.000057712
     43        6           0.000001392    0.000001015    0.000017562
     44        1           0.000000017    0.000018066   -0.000020127
     45        1          -0.000013010    0.000034688    0.000000002
     46        1          -0.000023250    0.000020990    0.000039187
     47        1          -0.000030588    0.000005415    0.000048680
     48        1          -0.000026637   -0.000001314    0.000057168
     49        8          -0.000077805    0.000082373    0.000069752
     50        1           0.000050453   -0.000055114    0.000012035
     51        6           0.000085553   -0.000047595   -0.000085792
     52        8           0.000022516    0.000051977    0.000037934
     53        8           0.000195119    0.000145285    0.000000970
     54        1          -0.000193483   -0.000130036    0.000034502
     55        6          -0.000226639    0.000049885   -0.000042472
     56        1           0.000008487    0.000018611   -0.000017973
     57        1           0.000055742   -0.000144957    0.000007147
     58        6          -0.000024792   -0.000000402   -0.000020974
     59        1           0.000009921    0.000011802    0.000039314
     60        1           0.000007102   -0.000008555   -0.000000105
     61        6          -0.000042133    0.000012757    0.000028833
     62        1          -0.000018103   -0.000013998   -0.000013011
     63        1          -0.000017068   -0.000018511   -0.000003650
     64        1          -0.000018209   -0.000000410    0.000000107
     65        6          -0.000291118    0.001041666    0.000569437
     66        1          -0.000241987   -0.000495672   -0.000594584
     67        1           0.000469924   -0.000526511    0.000060222
     68        6          -0.000155772    0.000728401    0.000332615
     69        1           0.000022601   -0.000093216   -0.000041757
     70        1          -0.000035423   -0.000439767   -0.000461980
     71        1           0.000382617   -0.000561007   -0.000094785
     72        6           0.000002880    0.000035578    0.000008906
     73        1          -0.000002388    0.000045316    0.000014808
     74        1           0.000013107    0.000020157    0.000038779
     75        6          -0.000007467   -0.000003428    0.000012282
     76        1           0.000043792    0.000030132   -0.000027929
     77        1           0.000007938    0.000004686   -0.000003115
 -------------------------------------------------------------------
 Cartesian Forces:  Max     0.001041666 RMS     0.000140106
 Z-matrix is all fixed cartesians, so copy forces.
 Leave Link  716 at Thu Feb  7 15:10:59 2019, MaxMem=   104857600 cpu:               2.4 elap:               0.1
 (Enter /home/xinyan/g16/l103.exe)

 GradGradGradGradGradGradGradGradGradGradGradGradGradGradGradGradGradGrad
 Berny optimization.
 Search for a local minimum.
 Step number   1 out of a maximum of    2
 All quantities printed in internal units (Hartrees-Bohrs-Radians)
 Second derivative matrix not updated -- first step.
 ITU=  0
     Eigenvalues ---   -0.00000   0.00000   0.00000   0.00000   0.00000
     Eigenvalues ---    0.00000   0.00007   0.00013   0.00018   0.00021
     Eigenvalues ---    0.00037   0.00038   0.00084   0.00095   0.00115
     Eigenvalues ---    0.00136   0.00141   0.00204   0.00234   0.00294
     Eigenvalues ---    0.00391   0.00406   0.00450   0.00498   0.00591
     Eigenvalues ---    0.00605   0.00621   0.00690   0.00709   0.00848
     Eigenvalues ---    0.00963   0.01125   0.01163   0.01467   0.01656
     Eigenvalues ---    0.01679   0.01888   0.01941   0.02043   0.02158
     Eigenvalues ---    0.02295   0.02305   0.02443   0.02536   0.02874
     Eigenvalues ---    0.02967   0.03068   0.03108   0.03222   0.03449
     Eigenvalues ---    0.03551   0.03716   0.03905   0.04201   0.04324
     Eigenvalues ---    0.04367   0.04806   0.04842   0.04875   0.04925
     Eigenvalues ---    0.05025   0.05069   0.05102   0.05112   0.05169
     Eigenvalues ---    0.05188   0.05266   0.05374   0.05470   0.05607
     Eigenvalues ---    0.05645   0.05666   0.05705   0.05743   0.05790
     Eigenvalues ---    0.06017   0.06158   0.06276   0.06509   0.06568
     Eigenvalues ---    0.06834   0.06852   0.06972   0.07029   0.07079
     Eigenvalues ---    0.07155   0.07249   0.07266   0.07329   0.07383
     Eigenvalues ---    0.07647   0.07797   0.07862   0.07958   0.08083
     Eigenvalues ---    0.08467   0.08570   0.08804   0.09022   0.09722
     Eigenvalues ---    0.09767   0.10161   0.10462   0.11256   0.11493
     Eigenvalues ---    0.11839   0.12125   0.12609   0.12856   0.12906
     Eigenvalues ---    0.12938   0.13029   0.13356   0.13669   0.13937
     Eigenvalues ---    0.14129   0.14440   0.14649   0.15634   0.15764
     Eigenvalues ---    0.16044   0.16107   0.16891   0.16938   0.16983
     Eigenvalues ---    0.17248   0.17306   0.17761   0.17881   0.19568
     Eigenvalues ---    0.19685   0.20336   0.20610   0.21577   0.21706
     Eigenvalues ---    0.23065   0.23368   0.23813   0.24797   0.26391
     Eigenvalues ---    0.27462   0.28628   0.29551   0.30056   0.30649
     Eigenvalues ---    0.31432   0.32262   0.34024   0.34775   0.36311
     Eigenvalues ---    0.36719   0.39444   0.39981   0.41233   0.43086
     Eigenvalues ---    0.43555   0.44554   0.48130   0.49028   0.50149
     Eigenvalues ---    0.52909   0.56799   0.57626   0.60200   0.64889
     Eigenvalues ---    0.65369   0.66352   0.67432   0.68243   0.68780
     Eigenvalues ---    0.70495   0.77678   0.78193   0.78374   0.81158
     Eigenvalues ---    0.82993   0.83330   0.85504   0.86674   0.87284
     Eigenvalues ---    0.87923   0.88677   0.90531   0.91308   0.93994
     Eigenvalues ---    0.94453   0.94775   0.94981   0.95627   0.96331
     Eigenvalues ---    0.97859   0.97933   0.99583   1.00352   1.00618
     Eigenvalues ---    1.00772   1.03881   1.04279   1.04608   1.06114
     Eigenvalues ---    1.06307   1.06786   1.07162   1.08817   1.09096
     Eigenvalues ---    1.12960   1.15712   1.15773   1.16842   1.19889
     Eigenvalues ---    1.21210   1.24169   1.26089   1.27761   1.37152
     Eigenvalues ---    1.47274   1.53556   1.56805   1.58269   1.58842
     Eigenvalues ---    1.59599   1.67129   1.72981   1.84147   2.33998
 Eigenvalue     1 is  -2.22D-16 should be greater than     0.000000 Eigenvector:
                          Y46       Y41       Y47       Y45       Y42
   1                    0.13557   0.13557   0.13557   0.13557   0.13557
                          Y40       Y43       Y39       Y48       Y44
   1                    0.13557   0.13557   0.13557   0.13557   0.13557
 Eigenvalue     2 is   5.41D-08 Eigenvector:
                          X45       Y46       X46       X40       Y73
   1                    0.16343  -0.14797   0.14749   0.14321   0.13571
                          X52       X41       X44       Y77       Y74
   1                    0.13455   0.13436   0.13397   0.13150   0.12936
 Eigenvalue     3 is   6.66D-08 Eigenvector:
                          Y46       X54       Z47       X53       Z46
   1                    0.20672  -0.19243  -0.18519  -0.17334  -0.17194
                          Y47       Y41       Z42       Z41       Z69
   1                    0.17119   0.16458  -0.15871  -0.15144   0.14534
 Eigenvalue     4 is   1.57D-07 Eigenvector:
                          Z77       Z76       Z57       Z71       Z54
   1                    0.18484   0.17994  -0.17163  -0.16711  -0.16533
                          Z53       Z75       Y64       Z33       Z66
   1                   -0.16441   0.15962  -0.15356   0.14887  -0.14339
 Eigenvalue     5 is   2.51D-07 Eigenvector:
                          Z47       Y46       Y64       Y9        Y47
   1                    0.18084   0.17631   0.16153  -0.15924   0.14918
                          Z42       Z48       Y7        Y62       Y71
   1                    0.14509   0.14191  -0.14184   0.13936  -0.13864
 Eigenvalue     6 is   4.60D-07 Eigenvector:
                          Y69       Z54       Y48       Y59       Y71
   1                    0.25820  -0.24437  -0.23257  -0.23032   0.20692
                          Y45       Y66       Z53       Z70       Y68
   1                    0.18614   0.18359  -0.18097   0.17997   0.17798
 Eigenvalue     7 is   6.55D-05 Eigenvector:
                          X69       X45       X46       X70       Z70
   1                    0.27256  -0.24178  -0.22769   0.22016   0.21329
                          Z69       X68       X67       X40       X41
   1                    0.20867   0.20709   0.20621  -0.18574  -0.17811
 Quadratic step=2.663D+00 exceeds max=3.000D-01 adjusted using Lamda=-9.311D-04.
 Angle between NR and scaled steps=  19.13 degrees.
 Angle between quadratic step and forces=  80.20 degrees.
 Linear search not attempted -- first point.
 B after Tr=    -0.000948    0.000899    0.001228
         Rot=    1.000000   -0.000129    0.000075   -0.000097 Ang=  -0.02 deg.
 Variable       Old X    -DE/DX   Delta X   Delta X   Delta X     New X
                                 (Linear)    (Quad)   (Total)
    X1       -9.25098  -0.00000   0.00000   0.00310   0.00218  -9.24880
    Y1        0.46028  -0.00002   0.00000  -0.00464  -0.00532   0.45496
    Z1       -0.82383  -0.00001   0.00000  -0.01344  -0.01347  -0.83729
    X2       -9.59949   0.00002   0.00000   0.00847   0.00826  -9.59122
    Y2       -1.93436  -0.00000   0.00000  -0.00317  -0.00351  -1.93787
    Z2       -2.41186   0.00001   0.00000  -0.01693  -0.01764  -2.42949
    X3       -7.07975   0.00002   0.00000   0.01173   0.01186  -7.06789
    Y3       -2.78508   0.00002   0.00000  -0.00125  -0.00079  -2.78587
    Z3       -3.56421   0.00000   0.00000  -0.01135  -0.01190  -3.57611
    X4       -5.20124   0.00001   0.00000   0.00641   0.00630  -5.19494
    Y4       -3.24778   0.00001   0.00000  -0.00214  -0.00187  -3.24965
    Z4       -1.43037  -0.00002   0.00000  -0.00690  -0.00729  -1.43766
    X5       -4.76557   0.00001   0.00000   0.00154   0.00074  -4.76483
    Y5       -0.80459  -0.00000   0.00000  -0.00304  -0.00310  -0.80769
    Z5        0.12826   0.00002   0.00000  -0.00451  -0.00420   0.12405
    X6       -7.27709  -0.00002   0.00000  -0.00153  -0.00268  -7.27977
    Y6        0.08838  -0.00000   0.00000  -0.00562  -0.00646   0.08192
    Z6        1.26124   0.00000   0.00000  -0.00920  -0.00904   1.25220
    X7       -7.31005   0.00002   0.00000   0.01532   0.01595  -7.29410
    Y7       -4.49949   0.00000   0.00000  -0.00034   0.00037  -4.49913
    Z7       -4.70062  -0.00003   0.00000  -0.01349  -0.01451  -4.71513
    X8      -10.35273   0.00000   0.00000   0.00584   0.00575 -10.34698
    Y8       -3.45759  -0.00000   0.00000  -0.00474  -0.00553  -3.46312
    Z8       -1.22141  -0.00004   0.00000  -0.02066  -0.02187  -1.24328
    X9      -10.97776   0.00001   0.00000   0.01231   0.01226 -10.96549
    Y9       -1.60770  -0.00000   0.00000  -0.00210  -0.00232  -1.61002
    Z9       -3.91903  -0.00002   0.00000  -0.02021  -0.02104  -3.94007
   X10       -8.64142   0.00000   0.00000   0.00471   0.00368  -8.63774
   Y10        2.00925   0.00003   0.00000  -0.00259  -0.00283   2.00642
   Z10       -2.06199  -0.00003   0.00000  -0.01026  -0.00980  -2.07179
   X11      -11.05686  -0.00000   0.00000   0.00070  -0.00044 -11.05731
   Y11        1.02548  -0.00001   0.00000  -0.00706  -0.00831   1.01717
   Z11        0.01293  -0.00001   0.00000  -0.01694  -0.01710  -0.00417
   X12       -5.94646   0.00000   0.00000   0.00363   0.00362  -5.94284
   Y12       -4.70776  -0.00004   0.00000  -0.00280  -0.00301  -4.71077
   Z12       -0.16968   0.00002   0.00000  -0.00913  -0.01000  -0.17968
   X13       -4.13466  -0.00000   0.00000   0.00393   0.00303  -4.13163
   Y13        0.65426   0.00002   0.00000  -0.00158  -0.00117   0.65309
   Z13       -1.20415  -0.00001   0.00000  -0.00185  -0.00107  -1.20522
   X14       -7.95369  -0.00001   0.00000  -0.00382  -0.00490  -7.95859
   Y14       -1.30314  -0.00003   0.00000  -0.00759  -0.00892  -1.31205
   Z14        2.63577   0.00001   0.00000  -0.01219  -0.01249   2.62328
   X15       -6.93654   0.00000   0.00000  -0.00471  -0.00636  -6.94290
   Y15        1.86985  -0.00000   0.00000  -0.00648  -0.00751   1.86233
   Z15        2.25824  -0.00000   0.00000  -0.00653  -0.00585   2.25239
   X16       -6.39368   0.00001   0.00000   0.01424   0.01426  -6.37942
   Y16       -1.27849   0.00000   0.00000   0.00011   0.00101  -1.27748
   Z16       -4.81648  -0.00001   0.00000  -0.00838  -0.00843  -4.82491
   X17       -2.69503   0.00002   0.00000   0.00897   0.00916  -2.68587
   Y17       -4.15955   0.00003   0.00000  -0.00143  -0.00047  -4.16002
   Z17       -2.25890  -0.00002   0.00000  -0.00016  -0.00041  -2.25931
   X18       -1.36227  -0.00000   0.00000   0.00969   0.00989  -1.35238
   Y18       -2.83529  -0.00002   0.00000  -0.00689  -0.00521  -2.84050
   Z18       -4.01176  -0.00000   0.00000  -0.00372  -0.00343  -4.01519
   X19       -1.41399   0.00000   0.00000   0.00886   0.00911  -1.40488
   Y19       -5.70015   0.00002   0.00000   0.00709   0.00788  -5.69227
   Z19       -0.64935   0.00000   0.00000   0.00811   0.00765  -0.64169
   X20        1.20292   0.00002   0.00000   0.01001   0.01026   1.21318
   Y20       -2.93777   0.00000   0.00000  -0.00452  -0.00231  -2.94008
   Z20       -4.15073  -0.00002   0.00000  -0.00009   0.00056  -4.15017
   X21       -2.45666   0.00001   0.00000   0.00988   0.01004  -2.44662
   Y21       -1.63223  -0.00001   0.00000  -0.01339  -0.01160  -1.64383
   Z21       -5.25440  -0.00001   0.00000  -0.01019  -0.00975  -5.26415
   X22        1.15084   0.00001   0.00000   0.00916   0.00944   1.16029
   Y22       -5.87053   0.00000   0.00000   0.01108   0.01237  -5.85816
   Z22       -0.64551   0.00002   0.00000   0.01299   0.01288  -0.63263
   X23       -2.55873   0.00000   0.00000   0.00818   0.00842  -2.55031
   Y23       -6.68498   0.00001   0.00000   0.01133   0.01154  -6.67344
   Z23        0.73671   0.00001   0.00000   0.01058   0.00970   0.74641
   X24        2.58807  -0.00000   0.00000   0.00934   0.00956   2.59764
   Y24       -4.29533  -0.00002   0.00000   0.00560   0.00760  -4.28773
   Z24       -2.27633   0.00002   0.00000   0.00783   0.00833  -2.26799
   X25        2.15939   0.00001   0.00000   0.01046   0.01071   2.17010
   Y25       -1.83334   0.00000   0.00000  -0.00947  -0.00671  -1.84004
   Z25       -5.57993  -0.00000   0.00000  -0.00364  -0.00256  -5.58249
   X26        2.03839   0.00002   0.00000   0.00876   0.00905   2.04744
   Y26       -7.02394   0.00002   0.00000   0.01880   0.01989  -7.00406
   Z26        0.78722   0.00002   0.00000   0.01946   0.01918   0.80640
   X27        5.08170   0.00004   0.00000   0.00892   0.00907   5.09077
   Y27       -4.10237   0.00003   0.00000   0.00973   0.01215  -4.09022
   Z27       -2.06581   0.00001   0.00000   0.00988   0.01081  -2.05501
   X28        6.41288   0.00000   0.00000   0.00732   0.00730   6.42018
   Y28       -4.99795   0.00003   0.00000   0.02437   0.02646  -4.97148
   Z28        0.20456   0.00003   0.00000   0.01661   0.01751   0.22207
   X29        6.18694   0.00001   0.00000   0.00834   0.00869   6.19563
   Y29       -7.03987   0.00003   0.00000   0.02562   0.02760  -7.01227
   Z29        0.42587   0.00003   0.00000   0.02903   0.02936   0.45523
   X30        5.62677   0.00002   0.00000   0.00525   0.00479   5.63157
   Y30       -3.99738   0.00003   0.00000   0.03402   0.03554  -3.96184
   Z30        1.84840   0.00000   0.00000   0.00970   0.01074   1.85914
   X31        6.48669   0.00001   0.00000   0.00826   0.00821   6.49490
   Y31       -2.06071  -0.00001   0.00000   0.00374   0.00676  -2.05395
   Z31       -3.31736  -0.00003   0.00000  -0.00057   0.00109  -3.31626
   X32        6.98751   0.00001   0.00000   0.00894   0.00929   6.99680
   Y32       -2.62549  -0.00000   0.00000  -0.00653  -0.00291  -2.62840
   Z32       -5.24790   0.00001   0.00000   0.00262   0.00421  -5.24369
   X33        5.30117  -0.00001   0.00000   0.00745   0.00707   5.30824
   Y33       -0.36914   0.00003   0.00000   0.00304   0.00584  -0.36330
   Z33       -3.35946   0.00001   0.00000  -0.00987  -0.00795  -3.36741
   X34       -2.68158  -0.00010   0.00000  -0.00272  -0.00374  -2.68532
   Y34       -1.04439  -0.00001   0.00000  -0.00443  -0.00455  -1.04894
   Z34        1.90414  -0.00000   0.00000   0.00002   0.00058   1.90472
   X35       -2.83578  -0.00003   0.00000  -0.00902  -0.01011  -2.84589
   Y35       -2.71181  -0.00001   0.00000  -0.00647  -0.00729  -2.71910
   Z35        4.48957  -0.00009   0.00000  -0.00186  -0.00176   4.48782
   X36       -5.10920   0.00001   0.00000  -0.00827  -0.00904  -5.11823
   Y36       -4.29229  -0.00001   0.00000  -0.00700  -0.00823  -4.30051
   Z36        4.37451  -0.00002   0.00000  -0.00895  -0.00959   4.36491
   X37       -0.40531   0.00001   0.00000  -0.00963  -0.01053  -0.41584
   Y37       -3.98267  -0.00002   0.00000  -0.00610  -0.00654  -3.98921
   Z37        4.87050   0.00000   0.00000   0.00348   0.00361   4.87412
   X38       -1.35888  -0.00000   0.00000  -0.00465  -0.00658  -1.36547
   Y38        4.66719   0.00003   0.00000   0.01504   0.01554   4.68273
   Z38        0.50344   0.00006   0.00000   0.01428   0.01652   0.51996
   X39       -0.42732  -0.00001   0.00000  -0.01051  -0.01193  -0.43926
   Y39        3.80498   0.00001   0.00000   0.02160   0.02289   3.82787
   Z39       -1.82604   0.00000   0.00000   0.00936   0.01152  -1.81453
   X40       -1.86811  -0.00002   0.00000  -0.01941  -0.02055  -1.88865
   Y40        4.03846   0.00003   0.00000   0.02034   0.02191   4.06037
   Z40       -4.01801   0.00002   0.00000   0.01508   0.01708  -4.00094
   X41       -4.27080  -0.00002   0.00000  -0.02303  -0.02439  -4.29519
   Y41        5.12137   0.00000   0.00000   0.01159   0.01267   5.13403
   Z41       -3.94826   0.00001   0.00000   0.02592   0.02784  -3.92043
   X42       -5.22133  -0.00002   0.00000  -0.01759  -0.01945  -5.24079
   Y42        5.97426   0.00000   0.00000   0.00419   0.00449   5.97875
   Z42       -1.64850   0.00006   0.00000   0.03098   0.03297  -1.61553
   X43       -3.76862   0.00000   0.00000  -0.00845  -0.01060  -3.77922
   Y43        5.74898   0.00000   0.00000   0.00622   0.00624   5.75522
   Z43        0.54012   0.00002   0.00000   0.02512   0.02728   0.56740
   X44        1.38470   0.00000   0.00000  -0.00726  -0.00849   1.37621
   Y44        2.84986   0.00002   0.00000   0.02805   0.02970   2.87956
   Z44       -1.86497  -0.00002   0.00000   0.00073   0.00290  -1.86207
   X45       -1.09479  -0.00001   0.00000  -0.02351  -0.02426  -1.11905
   Y45        3.38027   0.00003   0.00000   0.02647   0.02866   3.40892
   Z45       -5.80592   0.00000   0.00000   0.01100   0.01294  -5.79298
   X46       -5.38171  -0.00002   0.00000  -0.03001  -0.03115  -5.41287
   Y46        5.30966   0.00002   0.00000   0.01070   0.01200   5.32166
   Z46       -5.66478   0.00004   0.00000   0.03037   0.03217  -5.63261
   X47       -7.08763  -0.00003   0.00000  -0.02043  -0.02248  -7.11011
   Y47        6.82535   0.00001   0.00000  -0.00292  -0.00301   6.82234
   Z47       -1.55402   0.00005   0.00000   0.03945   0.04139  -1.51263
   X48       -4.52567  -0.00003   0.00000  -0.00445  -0.00700  -4.53267
   Y48        6.44247  -0.00000   0.00000   0.00048  -0.00011   6.44236
   Z48        2.32211   0.00006   0.00000   0.02915   0.03137   2.35348
   X49        1.03640  -0.00008   0.00000   0.00208   0.00006   1.03646
   Y49        2.41394   0.00008   0.00000   0.01828   0.01834   2.43228
   Z49        3.99811   0.00007   0.00000   0.01146   0.01347   4.01158
   X50       -0.81339   0.00005   0.00000  -0.00105  -0.00209  -0.81549
   Y50       -0.56977  -0.00006   0.00000  -0.00492  -0.00453  -0.57430
   Z50        1.35983   0.00001   0.00000   0.00497   0.00592   1.36575
   X51        3.20974   0.00009   0.00000  -0.01226  -0.01384   3.19590
   Y51        1.06301  -0.00005   0.00000   0.00271   0.00351   1.06652
   Z51        2.79889  -0.00009   0.00000   0.00241   0.00440   2.80329
   X52        2.48567   0.00002   0.00000  -0.03041  -0.03145   2.45422
   Y52       -0.03303   0.00005   0.00000   0.00305   0.00425  -0.02878
   Z52        0.68421   0.00004   0.00000   0.00856   0.01015   0.69436
   X53        3.89580   0.00020   0.00000  -0.01261  -0.01414   3.88167
   Y53       -0.65513   0.00015   0.00000   0.00226   0.00269  -0.65244
   Z53        4.73199   0.00000   0.00000   0.00219   0.00383   4.73582
   X54        2.58059  -0.00019   0.00000  -0.02233  -0.02360   2.55699
   Y54       -1.94313  -0.00013   0.00000   0.01145   0.01163  -1.93150
   Z54        4.71698   0.00003   0.00000   0.01355   0.01466   4.73164
   X55        5.48837  -0.00023   0.00000   0.00007  -0.00183   5.48654
   Y55        2.90281   0.00005   0.00000  -0.01435  -0.01307   2.88974
   Z55        2.65769  -0.00004   0.00000  -0.01419  -0.01140   2.64629
   X56        5.37353   0.00001   0.00000   0.02309   0.02069   5.39422
   Y56        4.21947   0.00002   0.00000  -0.01196  -0.01111   4.20836
   Z56        4.25627  -0.00002   0.00000  -0.01444  -0.01132   4.24495
   X57        7.17064   0.00006   0.00000  -0.00765  -0.00938   7.16126
   Y57        1.74601  -0.00014   0.00000  -0.02963  -0.02812   1.71789
   Z57        3.01661   0.00001   0.00000  -0.02521  -0.02247   2.99414
   X58        0.18391  -0.00002   0.00000   0.00511   0.00281   0.18672
   Y58        4.69117  -0.00000   0.00000   0.01772   0.01789   4.70906
   Z58        2.95287  -0.00002   0.00000   0.00805   0.01053   2.96339
   X59       -1.03226   0.00001   0.00000   0.01381   0.01112  -1.02114
   Y59        5.53605   0.00001   0.00000   0.02548   0.02504   5.56108
   Z59        4.40582   0.00004   0.00000   0.01088   0.01340   4.41922
   X60        1.76962   0.00001   0.00000   0.00814   0.00562   1.77524
   Y60        6.01190  -0.00001   0.00000   0.01200   0.01254   6.02444
   Z60        2.70040  -0.00000   0.00000  -0.00251   0.00054   2.70094
   X61       -3.16941  -0.00004   0.00000  -0.01627  -0.01816  -3.18757
   Y61       -0.48283   0.00001   0.00000  -0.00805  -0.00957  -0.49240
   Z61        6.98038   0.00003   0.00000  -0.00128  -0.00065   6.97973
   X62       -1.52312  -0.00002   0.00000  -0.01675  -0.01886  -1.54198
   Y62        0.76033  -0.00001   0.00000  -0.00702  -0.00820   0.75213
   Z62        6.85891  -0.00001   0.00000   0.00289   0.00409   6.86300
   X63       -4.92625  -0.00002   0.00000  -0.01623  -0.01828  -4.94453
   Y63        0.55560  -0.00002   0.00000  -0.00903  -0.01082   0.54478
   Z63        6.68203  -0.00000   0.00000  -0.00485  -0.00422   6.67782
   X64       -3.22389  -0.00002   0.00000  -0.01967  -0.02162  -3.24551
   Y64       -1.52924  -0.00000   0.00000  -0.00883  -0.01083  -1.54007
   Z64        8.75648   0.00000   0.00000  -0.00185  -0.00151   8.75497
   X65        5.87236  -0.00029   0.00000  -0.00386  -0.00567   5.86669
   Y65        4.34524   0.00104   0.00000  -0.02077  -0.01877   4.32646
   Z65        0.19062   0.00057   0.00000  -0.01857  -0.01535   0.17527
   X66        5.92694  -0.00024   0.00000  -0.05277  -0.05408   5.87285
   Y66        2.99975  -0.00050   0.00000  -0.02338  -0.02098   2.97877
   Z66       -1.37978  -0.00059   0.00000  -0.02087  -0.01800  -1.39778
   X67        4.27409   0.00047   0.00000   0.01578   0.01377   4.28786
   Y67        5.60183  -0.00053   0.00000   0.00745   0.00923   5.61106
   Z67       -0.20934   0.00006   0.00000   0.00203   0.00535  -0.20400
   X68        8.30385  -0.00016   0.00000   0.02843   0.02632   8.33018
   Y68        5.90118   0.00073   0.00000  -0.06997  -0.06750   5.83368
   Z68        0.23733   0.00033   0.00000  -0.05124  -0.04726   0.19007
   X69        8.59704   0.00002   0.00000   0.02356   0.02152   8.61856
   Y69        6.92392  -0.00009   0.00000  -0.07291  -0.06993   6.85399
   Z69       -1.53625  -0.00004   0.00000  -0.05368  -0.04939  -1.58565
   X70        8.25774  -0.00004   0.00000   0.07805   0.07544   8.33319
   Y70        7.29302  -0.00044   0.00000  -0.07318  -0.07110   7.22192
   Z70        1.77130  -0.00046   0.00000  -0.04903  -0.04469   1.72661
   X71        9.95239   0.00038   0.00000   0.00866   0.00675   9.95915
   Y71        4.69104  -0.00056   0.00000  -0.10691  -0.10420   4.58684
   Z71        0.55817  -0.00009   0.00000  -0.07836  -0.07446   0.48371
   X72        9.14006   0.00000   0.00000   0.00740   0.00731   9.14737
   Y72       -4.22152   0.00004   0.00000   0.02279   0.02554  -4.19597
   Z72       -0.30449   0.00001   0.00000   0.01464   0.01614  -0.28835
   X73       10.23750  -0.00000   0.00000   0.00525   0.00487  10.24237
   Y73       -4.08222   0.00005   0.00000   0.03492   0.03743  -4.04479
   Z73        1.43632   0.00001   0.00000   0.01501   0.01672   1.45304
   X74       10.05408   0.00001   0.00000   0.00969   0.01005  10.06413
   Y74       -5.59631   0.00002   0.00000   0.01502   0.01827  -5.57804
   Z74       -1.55381   0.00004   0.00000   0.02491   0.02619  -1.52762
   X75        8.81476  -0.00001   0.00000   0.00801   0.00763   8.82239
   Y75       -1.67702  -0.00000   0.00000   0.01388   0.01692  -1.66010
   Z75       -1.64083   0.00001   0.00000  -0.00246  -0.00034  -1.64117
   X76        8.38430   0.00004   0.00000   0.00856   0.00769   8.39199
   Y76       -0.22367   0.00003   0.00000   0.02346   0.02606  -0.19761
   Z76       -0.23790  -0.00003   0.00000  -0.01228  -0.00985  -0.24774
   X77       10.47222   0.00001   0.00000   0.00840   0.00807  10.48029
   Y77       -1.08963   0.00000   0.00000   0.00622   0.00986  -1.07977
   Z77       -2.72081  -0.00000   0.00000  -0.00601  -0.00350  -2.72431
         Item               Value     Threshold  Converged?
 Maximum Force            0.001042     0.000450     NO 
 RMS     Force            0.000140     0.000300     YES
 Maximum Displacement     0.104199     0.001800     NO 
 RMS     Displacement     0.019720     0.001200     NO 
 Predicted change in Energy=-9.956221D-05
 GradGradGradGradGradGradGradGradGradGradGradGradGradGradGradGradGradGrad

 Leave Link  103 at Thu Feb  7 15:11:00 2019, MaxMem=   104857600 cpu:              30.7 elap:               1.4
 (Enter /home/xinyan/g16/l9999.exe)
 1\1\GINC-TSE4\Force\RM062X\6-31G(d)\C27H41N3O5S1\STEVETSE\07-Feb-2019\
 0\\#p M062X/6-31G* em=gd3 force int=ultrafine\\Title\\0,1\C,-4.89541,0
 .24357,-0.43595\C,-5.07983,-1.02362,-1.2763\C,-3.74644,-1.4738,-1.8861
 \C,-2.75238,-1.71865,-0.75692\C,-2.52183,-0.42577,0.06787\C,-3.85087,0
 .04677,0.66742\H,-3.86831,-2.38103,-2.48746\H,-5.47843,-1.82968,-0.646
 34\H,-5.80918,-0.85076,-2.07386\H,-4.57284,1.06325,-1.09116\H,-5.85104
 ,0.54266,0.00684\H,-3.14673,-2.49124,-0.08979\H,-2.18797,0.34622,-0.63
 721\H,-4.20891,-0.68959,1.39479\H,-3.67066,0.98948,1.19501\H,-3.38339,
 -0.67655,-2.54877\N,-1.42615,-2.20114,-1.19536\C,-0.72088,-1.50037,-2.
 12293\C,-0.74825,-3.01639,-0.34362\C,0.63656,-1.5546,-2.19647\H,-1.300
 01,-0.86374,-2.78051\C,0.609,-3.10655,-0.34159\H,-1.35402,-3.53754,0.3
 8985\C,1.36955,-2.27299,-1.20458\H,1.1427,-0.97016,-2.95277\H,1.07867,
 -3.71691,0.41658\N,2.68912,-2.17088,-1.09318\C,3.39355,-2.6448,0.10825
 \H,3.27399,-3.72534,0.22536\H,2.97756,-2.11532,0.97813\C,3.43261,-1.09
 048,-1.75547\H,3.69763,-1.38935,-2.77707\H,2.80526,-0.19534,-1.77775\N
 ,-1.41903,-0.55267,1.00763\S,-1.50063,-1.43503,2.37578\O,-2.70367,-2.2
 7138,2.31489\O,-0.21448,-2.10754,2.57736\C,-0.71909,2.46977,0.26641\C,
 -0.22613,2.01351,-0.9663\C,-0.98856,2.13706,-2.12624\C,-2.26001,2.7101
 1,-2.08933\C,-2.76301,3.16144,-0.87235\C,-1.99427,3.04223,0.28582\H,0.
 73275,1.50808,-0.9869\H,-0.57934,1.78876,-3.07236\H,-2.84788,2.80975,-
 2.99767\H,-3.75061,3.61182,-0.82235\H,-2.39488,3.40921,1.22881\O,0.548
 44,1.2774,2.11571\H,-0.43043,-0.30151,0.71959\C,1.69852,0.56252,1.4811
 1\O,1.31536,-0.01748,0.36207\O,2.06157,-0.34668,2.50406\H,1.36559,-1.0
 2826,2.49612\C,2.90432,1.5361,1.40639\H,2.84355,2.23285,2.25232\H,3.79
 454,0.92395,1.59632\C,0.09732,2.48246,1.56259\H,-0.54625,2.92955,2.331
 46\H,0.93644,3.18136,1.42899\C,-1.67718,-0.2555,3.69386\H,-0.806,0.402
 35,3.62958\H,-2.60686,0.29401,3.53598\H,-1.70601,-0.80924,4.63373\C,3.
 10752,2.2994,0.10087\H,3.1364,1.5874,-0.73015\H,2.26175,2.96436,-0.110
 78\C,4.39421,3.12277,0.12559\H,4.54936,3.66398,-0.81295\H,4.36981,3.85
 93,0.93733\H,5.26658,2.48239,0.29537\C,4.83671,-2.23393,-0.16113\H,5.4
 1745,-2.16022,0.76007\H,5.32039,-2.96144,-0.82224\C,4.66457,-0.88744,-
 0.86829\H,4.43678,-0.11836,-0.12589\H,5.54166,-0.57661,-1.43979\\Versi
 on=ES64L-G16RevA.03\State=1-A\HF=-1991.3585956\RMSD=9.456e-09\RMSF=1.4
 01e-04\Dipole=-0.9400692,-0.6796552,-2.5429615\Quadrupole=7.8703831,-5
 .3051287,-2.5652544,-9.2746923,-3.9659714,7.2418656\PG=C01 [X(C27H41N3
 O5S1)]\\@


 THE MOST INCOMPREHENSIBLE THING ABOUT THE WORLD
 IS THAT IT IS COMPREHENSIBLE. -- A. EINSTEIN
 Job cpu time:       0 days  1 hours 17 minutes 58.2 seconds.
 Elapsed time:       0 days  0 hours  3 minutes 16.1 seconds.
 File lengths (MBytes):  RWF=    216 Int=      0 D2E=      0 Chk=     25 Scr=      1
 Normal termination of Gaussian 16 at Thu Feb  7 15:11:01 2019.
