 Entering Gaussian System, Link 0=g16
 Input=C27N3H41SO5-41.gjf
 Output=C27N3H41SO5-41.log
 Initial command:
 /home/xinyan/g16/l1.exe "/local/home/tmp/Gau-17608.inp" -scrdir="/local/home/tmp/"
 Entering Link 1 = /home/xinyan/g16/l1.exe PID=     17609.
  
 Copyright (c) 1988,1990,1992,1993,1995,1998,2003,2009,2016,
            Gaussian, Inc.  All Rights Reserved.
  
 This is part of the Gaussian(R) 16 program.  It is based on
 the Gaussian(R) 09 system (copyright 2009, Gaussian, Inc.),
 the Gaussian(R) 03 system (copyright 2003, Gaussian, Inc.),
 the Gaussian(R) 98 system (copyright 1998, Gaussian, Inc.),
 the Gaussian(R) 94 system (copyright 1995, Gaussian, Inc.),
 the Gaussian 92(TM) system (copyright 1992, Gaussian, Inc.),
 the Gaussian 90(TM) system (copyright 1990, Gaussian, Inc.),
 the Gaussian 88(TM) system (copyright 1988, Gaussian, Inc.),
 the Gaussian 86(TM) system (copyright 1986, Carnegie Mellon
 University), and the Gaussian 82(TM) system (copyright 1983,
 Carnegie Mellon University). Gaussian is a federally registered
 trademark of Gaussian, Inc.
  
 This software contains proprietary and confidential information,
 including trade secrets, belonging to Gaussian, Inc.
  
 This software is provided under written license and may be
 used, copied, transmitted, or stored only in accord with that
 written license.
  
 The following legend is applicable only to US Government
 contracts under FAR:
  
                    RESTRICTED RIGHTS LEGEND
  
 Use, reproduction and disclosure by the US Government is
 subject to restrictions as set forth in subparagraphs (a)
 and (c) of the Commercial Computer Software - Restricted
 Rights clause in FAR 52.227-19.
  
 Gaussian, Inc.
 340 Quinnipiac St., Bldg. 40, Wallingford CT 06492
  
  
 ---------------------------------------------------------------
 Warning -- This program may not be used in any manner that
 competes with the business of Gaussian, Inc. or will provide
 assistance to any competitor of Gaussian, Inc.  The licensee
 of this program is prohibited from giving any competitor of
 Gaussian, Inc. access to this program.  By using this program,
 the user acknowledges that Gaussian, Inc. is engaged in the
 business of creating and licensing software in the field of
 computational chemistry and represents and warrants to the
 licensee that it is not a competitor of Gaussian, Inc. and that
 it will not use this program in any manner prohibited above.
 ---------------------------------------------------------------
  

 Cite this work as:
 Gaussian 16, Revision A.03,
 M. J. Frisch, G. W. Trucks, H. B. Schlegel, G. E. Scuseria, 
 M. A. Robb, J. R. Cheeseman, G. Scalmani, V. Barone, 
 G. A. Petersson, H. Nakatsuji, X. Li, M. Caricato, A. V. Marenich, 
 J. Bloino, B. G. Janesko, R. Gomperts, B. Mennucci, H. P. Hratchian, 
 J. V. Ortiz, A. F. Izmaylov, J. L. Sonnenberg, D. Williams-Young, 
 F. Ding, F. Lipparini, F. Egidi, J. Goings, B. Peng, A. Petrone, 
 T. Henderson, D. Ranasinghe, V. G. Zakrzewski, J. Gao, N. Rega, 
 G. Zheng, W. Liang, M. Hada, M. Ehara, K. Toyota, R. Fukuda, 
 J. Hasegawa, M. Ishida, T. Nakajima, Y. Honda, O. Kitao, H. Nakai, 
 T. Vreven, K. Throssell, J. A. Montgomery, Jr., J. E. Peralta, 
 F. Ogliaro, M. J. Bearpark, J. J. Heyd, E. N. Brothers, K. N. Kudin, 
 V. N. Staroverov, T. A. Keith, R. Kobayashi, J. Normand, 
 K. Raghavachari, A. P. Rendell, J. C. Burant, S. S. Iyengar, 
 J. Tomasi, M. Cossi, J. M. Millam, M. Klene, C. Adamo, R. Cammi, 
 J. W. Ochterski, R. L. Martin, K. Morokuma, O. Farkas, 
 J. B. Foresman, and D. J. Fox, Gaussian, Inc., Wallingford CT, 2016.
 
 ******************************************
 Gaussian 16:  ES64L-G16RevA.03 25-Dec-2016
                 7-Feb-2019 
 ******************************************
 %nproc=24
 Will use up to   24 processors via shared memory.
 ------------------------------------------
 #p M062X/6-31G* em=gd3 force int=ultrafine
 ------------------------------------------
 1/10=7,30=1,38=1/1,3;
 2/12=2,17=6,18=5,40=1/2;
 3/5=1,6=6,7=1,11=2,25=1,30=1,71=1,74=-55,75=-5,124=31/1,2,3;
 4//1;
 5/5=2,38=5/2;
 6/7=2,8=2,9=2,10=2,28=1/1;
 7/29=1/1,2,3,16;
 1/10=7,30=1/3;
 99//99;
 Leave Link    1 at Thu Feb  7 10:46:37 2019, MaxMem=           0 cpu:               2.5 elap:               0.1
 (Enter /home/xinyan/g16/l101.exe)
 -----
 Title
 -----
 Symbolic Z-matrix:
 Charge =  0 Multiplicity = 1
 C                    -4.98666   0.23093  -0.42948 
 C                    -5.13307  -1.04823  -1.25877 
 C                    -3.78062  -1.48138  -1.83721 
 C                    -2.79682  -1.70184  -0.69256 
 C                    -2.62054  -0.40514   0.13416 
 C                    -3.96787   0.05369   0.69972 
 H                    -3.87479  -2.39422  -2.43489 
 H                    -5.53165  -1.85304  -0.62724 
 H                    -5.84817  -0.89705  -2.07336 
 H                    -4.65453   1.04789  -1.08455 
 H                    -5.95638   0.52451  -0.01496 
 H                    -3.1801   -2.48656  -0.03217 
 H                    -2.27511   0.37033  -0.56165 
 H                    -4.33036  -0.68116   1.42643 
 H                    -3.80788   1.0017    1.2255 
 H                    -3.41961  -0.68215  -2.49837 
 N                    -1.45628  -2.15306  -1.12109 
 C                    -0.7686   -1.46912  -2.07467 
 C                    -0.76206  -2.96442  -0.2798 
 C                     0.58464  -1.54572  -2.19266 
 H                    -1.35758  -0.83137  -2.72137 
 C                     0.59256  -3.07963  -0.32492 
 H                    -1.35061  -3.47442   0.47493 
 C                     1.34245  -2.28141  -1.23232 
 H                     1.07447  -0.97384  -2.96942 
 H                     1.07565  -3.69568   0.42014 
 N                     2.66852  -2.23482  -1.18793 
 C                     3.39844  -2.75278  -0.01955 
 H                     3.26847  -3.83518   0.06879 
 H                     3.01176  -2.24202   0.87382 
 C                     3.43204  -1.17038  -1.86131 
 H                     3.70664  -1.49183  -2.87378 
 H                     2.82541  -0.26271  -1.89357 
 N                    -1.54346  -0.51214   1.10249 
 S                    -1.55663  -1.40826   2.46673 
 O                    -2.78221  -2.2093    2.44132 
 O                    -0.2771   -2.10536   2.59682 
 C                    -0.68092   2.43056   0.15837 
 C                    -0.18014   1.87595  -1.02789 
 C                    -0.91048   1.97464  -2.21201 
 C                    -2.15324   2.60738  -2.23615 
 C                    -2.66286   3.15064  -1.05838 
 C                    -1.92758   3.06256   0.12341 
 H                     0.75845   1.32501  -0.98033 
 H                    -0.49942   1.55726  -3.12922 
 H                    -2.71585   2.68306  -3.16258 
 H                    -3.6301    3.64564  -1.05976 
 H                    -2.33174   3.4926    1.03775 
 O                     0.55188   1.13195   1.89566 
 H                    -0.63518  -0.05157   0.93699 
 C                     1.88513   0.52298   1.38066 
 O                     1.71058  -0.01893   0.21914 
 O                     2.14331  -0.38969   2.43151 
 H                     1.44752  -1.06728   2.35316 
 C                     2.98026   1.60496   1.49963 
 H                     2.76353   2.26416   2.34997 
 H                     3.90425   1.07353   1.76191 
 C                     0.09995   2.38703   1.47018 
 H                    -0.5705    2.76314   2.25735 
 H                     0.92961   3.10634   1.41316 
 C                    -1.61814  -0.22353   3.79087 
 H                    -0.73548   0.41042   3.66137 
 H                    -2.54413   0.34639   3.70098 
 H                    -1.5837   -0.77263   4.73322 
 C                     3.223     2.41342   0.22733 
 H                     3.50383   1.72605  -0.5789 
 H                     2.30009   2.89597  -0.11545 
 C                     4.30642   3.4716    0.42325 
 H                     4.50088   4.03099  -0.49713 
 H                     4.01374   4.1907    1.19658 
 H                     5.24784   3.0122    0.74485 
 C                     4.83891  -2.34285  -0.30168 
 H                     5.43482  -2.30161   0.6119 
 H                     5.30896  -3.04984  -0.99461 
 C                     4.65199  -0.97489  -0.9589 
 H                     4.38413  -0.24434  -0.1904 
 H                     5.52806  -0.62479  -1.50905 
 
 ITRead=  0  0  0  0  0  0  0  0  0  0  0  0  0  0  0  0  0  0  0  0
 ITRead=  0  0  0  0  0  0  0  0  0  0  0  0  0  0  0  0  0  0  0  0
 ITRead=  0  0  0  0  0  0  0  0  0  0  0  0  0  0  0  0  0  0  0  0
 ITRead=  0  0  0  0  0  0  0  0  0  0  0  0  0  0  0  0  0
 MicOpt= -1 -1 -1 -1 -1 -1 -1 -1 -1 -1 -1 -1 -1 -1 -1 -1 -1 -1 -1 -1
 MicOpt= -1 -1 -1 -1 -1 -1 -1 -1 -1 -1 -1 -1 -1 -1 -1 -1 -1 -1 -1 -1
 MicOpt= -1 -1 -1 -1 -1 -1 -1 -1 -1 -1 -1 -1 -1 -1 -1 -1 -1 -1 -1 -1
 MicOpt= -1 -1 -1 -1 -1 -1 -1 -1 -1 -1 -1 -1 -1 -1 -1 -1 -1
 NAtoms=     77 NQM=       77 NQMF=       0 NMMI=      0 NMMIF=      0
                NMic=       0 NMicF=      0.
                    Isotopes and Nuclear Properties:
 (Nuclear quadrupole moments (NQMom) in fm**2, nuclear magnetic moments (NMagM)
  in nuclear magnetons)

  Atom         1           2           3           4           5           6           7           8           9          10
 IAtWgt=          12          12          12          12          12          12           1           1           1           1
 AtmWgt=  12.0000000  12.0000000  12.0000000  12.0000000  12.0000000  12.0000000   1.0078250   1.0078250   1.0078250   1.0078250
 NucSpn=           0           0           0           0           0           0           1           1           1           1
 AtZEff=  -0.0000000  -0.0000000  -0.0000000  -0.0000000  -0.0000000  -0.0000000  -0.0000000  -0.0000000  -0.0000000  -0.0000000
 NQMom=    0.0000000   0.0000000   0.0000000   0.0000000   0.0000000   0.0000000   0.0000000   0.0000000   0.0000000   0.0000000
 NMagM=    0.0000000   0.0000000   0.0000000   0.0000000   0.0000000   0.0000000   2.7928460   2.7928460   2.7928460   2.7928460
 AtZNuc=   6.0000000   6.0000000   6.0000000   6.0000000   6.0000000   6.0000000   1.0000000   1.0000000   1.0000000   1.0000000

  Atom        11          12          13          14          15          16          17          18          19          20
 IAtWgt=           1           1           1           1           1           1          14          12          12          12
 AtmWgt=   1.0078250   1.0078250   1.0078250   1.0078250   1.0078250   1.0078250  14.0030740  12.0000000  12.0000000  12.0000000
 NucSpn=           1           1           1           1           1           1           2           0           0           0
 AtZEff=  -0.0000000  -0.0000000  -0.0000000  -0.0000000  -0.0000000  -0.0000000  -0.0000000  -0.0000000  -0.0000000  -0.0000000
 NQMom=    0.0000000   0.0000000   0.0000000   0.0000000   0.0000000   0.0000000   2.0440000   0.0000000   0.0000000   0.0000000
 NMagM=    2.7928460   2.7928460   2.7928460   2.7928460   2.7928460   2.7928460   0.4037610   0.0000000   0.0000000   0.0000000
 AtZNuc=   1.0000000   1.0000000   1.0000000   1.0000000   1.0000000   1.0000000   7.0000000   6.0000000   6.0000000   6.0000000

  Atom        21          22          23          24          25          26          27          28          29          30
 IAtWgt=           1          12           1          12           1           1          14          12           1           1
 AtmWgt=   1.0078250  12.0000000   1.0078250  12.0000000   1.0078250   1.0078250  14.0030740  12.0000000   1.0078250   1.0078250
 NucSpn=           1           0           1           0           1           1           2           0           1           1
 AtZEff=  -0.0000000  -0.0000000  -0.0000000  -0.0000000  -0.0000000  -0.0000000  -0.0000000  -0.0000000  -0.0000000  -0.0000000
 NQMom=    0.0000000   0.0000000   0.0000000   0.0000000   0.0000000   0.0000000   2.0440000   0.0000000   0.0000000   0.0000000
 NMagM=    2.7928460   0.0000000   2.7928460   0.0000000   2.7928460   2.7928460   0.4037610   0.0000000   2.7928460   2.7928460
 AtZNuc=   1.0000000   6.0000000   1.0000000   6.0000000   1.0000000   1.0000000   7.0000000   6.0000000   1.0000000   1.0000000

  Atom        31          32          33          34          35          36          37          38          39          40
 IAtWgt=          12           1           1          14          32          16          16          12          12          12
 AtmWgt=  12.0000000   1.0078250   1.0078250  14.0030740  31.9720718  15.9949146  15.9949146  12.0000000  12.0000000  12.0000000
 NucSpn=           0           1           1           2           0           0           0           0           0           0
 AtZEff=  -0.0000000  -0.0000000  -0.0000000  -0.0000000  -0.0000000  -0.0000000  -0.0000000  -0.0000000  -0.0000000  -0.0000000
 NQMom=    0.0000000   0.0000000   0.0000000   2.0440000   0.0000000   0.0000000   0.0000000   0.0000000   0.0000000   0.0000000
 NMagM=    0.0000000   2.7928460   2.7928460   0.4037610   0.0000000   0.0000000   0.0000000   0.0000000   0.0000000   0.0000000
 AtZNuc=   6.0000000   1.0000000   1.0000000   7.0000000  16.0000000   8.0000000   8.0000000   6.0000000   6.0000000   6.0000000

  Atom        41          42          43          44          45          46          47          48          49          50
 IAtWgt=          12          12          12           1           1           1           1           1          16           1
 AtmWgt=  12.0000000  12.0000000  12.0000000   1.0078250   1.0078250   1.0078250   1.0078250   1.0078250  15.9949146   1.0078250
 NucSpn=           0           0           0           1           1           1           1           1           0           1
 AtZEff=  -0.0000000  -0.0000000  -0.0000000  -0.0000000  -0.0000000  -0.0000000  -0.0000000  -0.0000000  -0.0000000  -0.0000000
 NQMom=    0.0000000   0.0000000   0.0000000   0.0000000   0.0000000   0.0000000   0.0000000   0.0000000   0.0000000   0.0000000
 NMagM=    0.0000000   0.0000000   0.0000000   2.7928460   2.7928460   2.7928460   2.7928460   2.7928460   0.0000000   2.7928460
 AtZNuc=   6.0000000   6.0000000   6.0000000   1.0000000   1.0000000   1.0000000   1.0000000   1.0000000   8.0000000   1.0000000

  Atom        51          52          53          54          55          56          57          58          59          60
 IAtWgt=          12          16          16           1          12           1           1          12           1           1
 AtmWgt=  12.0000000  15.9949146  15.9949146   1.0078250  12.0000000   1.0078250   1.0078250  12.0000000   1.0078250   1.0078250
 NucSpn=           0           0           0           1           0           1           1           0           1           1
 AtZEff=  -0.0000000  -0.0000000  -0.0000000  -0.0000000  -0.0000000  -0.0000000  -0.0000000  -0.0000000  -0.0000000  -0.0000000
 NQMom=    0.0000000   0.0000000   0.0000000   0.0000000   0.0000000   0.0000000   0.0000000   0.0000000   0.0000000   0.0000000
 NMagM=    0.0000000   0.0000000   0.0000000   2.7928460   0.0000000   2.7928460   2.7928460   0.0000000   2.7928460   2.7928460
 AtZNuc=   6.0000000   8.0000000   8.0000000   1.0000000   6.0000000   1.0000000   1.0000000   6.0000000   1.0000000   1.0000000

  Atom        61          62          63          64          65          66          67          68          69          70
 IAtWgt=          12           1           1           1          12           1           1          12           1           1
 AtmWgt=  12.0000000   1.0078250   1.0078250   1.0078250  12.0000000   1.0078250   1.0078250  12.0000000   1.0078250   1.0078250
 NucSpn=           0           1           1           1           0           1           1           0           1           1
 AtZEff=  -0.0000000  -0.0000000  -0.0000000  -0.0000000  -0.0000000  -0.0000000  -0.0000000  -0.0000000  -0.0000000  -0.0000000
 NQMom=    0.0000000   0.0000000   0.0000000   0.0000000   0.0000000   0.0000000   0.0000000   0.0000000   0.0000000   0.0000000
 NMagM=    0.0000000   2.7928460   2.7928460   2.7928460   0.0000000   2.7928460   2.7928460   0.0000000   2.7928460   2.7928460
 AtZNuc=   6.0000000   1.0000000   1.0000000   1.0000000   6.0000000   1.0000000   1.0000000   6.0000000   1.0000000   1.0000000

  Atom        71          72          73          74          75          76          77
 IAtWgt=           1          12           1           1          12           1           1
 AtmWgt=   1.0078250  12.0000000   1.0078250   1.0078250  12.0000000   1.0078250   1.0078250
 NucSpn=           1           0           1           1           0           1           1
 AtZEff=  -0.0000000  -0.0000000  -0.0000000  -0.0000000  -0.0000000  -0.0000000  -0.0000000
 NQMom=    0.0000000   0.0000000   0.0000000   0.0000000   0.0000000   0.0000000   0.0000000
 NMagM=    2.7928460   0.0000000   2.7928460   2.7928460   0.0000000   2.7928460   2.7928460
 AtZNuc=   1.0000000   6.0000000   1.0000000   1.0000000   6.0000000   1.0000000   1.0000000
 Leave Link  101 at Thu Feb  7 10:46:37 2019, MaxMem=   104857600 cpu:               5.8 elap:               0.3
 (Enter /home/xinyan/g16/l103.exe)

 GradGradGradGradGradGradGradGradGradGradGradGradGradGradGradGradGradGrad
 Berny optimization.
 Initialization pass.
 Trust Radius=3.00D-01 FncErr=1.00D-07 GrdErr=1.00D-07 EigMax=2.50D+02 EigMin=1.00D-04
 Number of steps in this run=      2 maximum allowed number of steps=      2.
 GradGradGradGradGradGradGradGradGradGradGradGradGradGradGradGradGradGrad

 Leave Link  103 at Thu Feb  7 10:46:37 2019, MaxMem=   104857600 cpu:               1.6 elap:               0.1
 (Enter /home/xinyan/g16/l202.exe)
 Stoichiometry    C27H41N3O5S
 Framework group  C1[X(C27H41N3O5S)]
 Deg. of freedom   225
 Full point group                 C1      NOp   1
 Largest Abelian subgroup         C1      NOp   1
 Largest concise Abelian subgroup C1      NOp   1
                         Standard orientation:                         
 ---------------------------------------------------------------------
 Center     Atomic      Atomic             Coordinates (Angstroms)
 Number     Number       Type             X           Y           Z
 ---------------------------------------------------------------------
      1          6           0       -4.865341    0.503870   -0.557604
      2          6           0       -5.036288   -0.795784   -1.349492
      3          6           0       -3.695499   -1.261753   -1.929569
      4          6           0       -2.702363   -1.462852   -0.789425
      5          6           0       -2.501361   -0.146114   -0.000901
      6          6           0       -3.836852    0.345103    0.565536
      7          1           0       -3.807243   -2.189510   -2.500662
      8          1           0       -5.437996   -1.577744   -0.691781
      9          1           0       -5.758101   -0.658191   -2.160563
     10          1           0       -4.530175    1.298161   -1.238498
     11          1           0       -5.826911    0.820983   -0.141438
     12          1           0       -3.088218   -2.224127   -0.103583
     13          1           0       -2.153841    0.605412   -0.721502
     14          1           0       -4.200601   -0.364753    1.316070
     15          1           0       -3.659628    1.305197    1.063105
     16          1           0       -3.331740   -0.485716   -2.616355
     17          7           0       -1.372109   -1.942589   -1.219034
     18          6           0       -0.686253   -1.293986   -2.198272
     19          6           0       -0.679010   -2.739057   -0.362722
     20          6           0        0.664611   -1.390851   -2.328013
     21          1           0       -1.274191   -0.666994   -2.856340
     22          6           0        0.673533   -2.872516   -0.418567
     23          1           0       -1.265726   -3.220546    0.411901
     24          6           0        1.423488   -2.109192   -1.355460
     25          1           0        1.153146   -0.846877   -3.125360
     26          1           0        1.156909   -3.473766    0.338305
     27          7           0        2.750428   -2.078092   -1.326035
     28          6           0        3.486312   -2.572702   -0.151294
     29          1           0        3.343985   -3.650523   -0.031589
     30          1           0        3.115470   -2.032610    0.731477
     31          6           0        3.519776   -1.042373   -2.036546
     32          1           0        3.779614   -1.395123   -3.042470
     33          1           0        2.924048   -0.128376   -2.087759
     34          7           0       -1.415437   -0.239855    0.958888
     35         16           0       -1.425113   -1.097679    2.347557
     36          8           0       -2.660654   -1.883621    2.357025
     37          8           0       -0.152943   -1.806970    2.483781
     38          6           0       -0.526860    2.664526   -0.075435
     39          6           0       -0.045589    2.071071   -1.250924
     40          6           0       -0.787216    2.146174   -2.429748
     41          6           0       -2.022286    2.793601   -2.458660
     42          6           0       -2.512626    3.375588   -1.291250
     43          6           0       -1.765953    3.310963   -0.115101
     44          1           0        0.886607    1.509883   -1.197744
     45          1           0       -0.391103    1.698453   -3.339193
     46          1           0       -2.593747    2.850717   -3.380993
     47          1           0       -3.473664    3.882499   -1.296422
     48          1           0       -2.155042    3.771172    0.791053
     49          8           0        0.708287    1.399024    1.684473
     50          1           0       -0.503373    0.204492    0.771318
     51          6           0        2.028391    0.759311    1.172889
     52          8           0        1.834841    0.187736    0.028729
     53          8           0        2.286491   -0.127136    2.245972
     54          1           0        1.581625   -0.797819    2.193640
     55          6           0        3.137951    1.830292    1.250480
     56          1           0        2.938405    2.515426    2.084367
     57          1           0        4.058072    1.294725    1.517894
     58          6           0        0.267328    2.647451    1.228970
     59          1           0       -0.390032    3.053591    2.012249
     60          1           0        1.105119    3.354407    1.143454
     61          6           0       -1.457955    0.123887    3.638841
     62          1           0       -0.568992    0.742851    3.482702
     63          1           0       -2.377769    0.702717    3.542692
     64          1           0       -1.420248   -0.399341    4.595675
     65          6           0        3.377067    2.600148   -0.046217
     66          1           0        3.640827    1.887270   -0.835891
     67          1           0        2.456567    3.084619   -0.392750
     68          6           0        4.475444    3.649616    0.109071
     69          1           0        4.666967    4.180854   -0.828445
     70          1           0        4.199875    4.393449    0.865100
     71          1           0        5.414510    3.187466    0.433599
     72          6           0        4.928632   -2.188897   -0.459516
     73          1           0        5.534690   -2.129921    0.446384
     74          1           0        5.382551   -2.920636   -1.137342
     75          6           0        4.751570   -0.837385   -1.152520
     76          1           0        4.500908   -0.082553   -0.401893
     77          1           0        5.625978   -0.513686   -1.721172
 ---------------------------------------------------------------------
 Rotational constants (GHZ):           0.1520324           0.0986936           0.0893589
 Leave Link  202 at Thu Feb  7 10:46:37 2019, MaxMem=   104857600 cpu:               2.4 elap:               0.1
 (Enter /home/xinyan/g16/l301.exe)
 Standard basis: 6-31G(d) (6D, 7F)
 Ernie: Thresh=  0.10000D-02 Tol=  0.10000D-05 Strict=F.
 There are   626 symmetry adapted cartesian basis functions of A   symmetry.
 There are   626 symmetry adapted basis functions of A   symmetry.
   626 basis functions,  1196 primitive gaussians,   626 cartesian basis functions
   140 alpha electrons      140 beta electrons
       nuclear repulsion energy      4960.7224842532 Hartrees.
 IExCor= 4336 DFT=T Ex+Corr=M062X ExCW=0 ScaHFX=  0.540000
 ScaDFX=  1.000000  1.000000  1.000000  1.000000 ScalE2=  1.000000  1.000000
 IRadAn=      5 IRanWt=     -1 IRanGd=            0 ICorTp=0 IEmpDi=131
 NAtoms=   77 NActive=   77 NUniq=   77 SFac= 1.00D+00 NAtFMM=   60 NAOKFM=T Big=T
 Integral buffers will be    131072 words long.
 Raffenetti 2 integral format.
 Two-electron integral symmetry is turned on.
 R6Disp:  Grimme-D3 Dispersion energy=       -0.0107161721 Hartrees.
 Nuclear repulsion after empirical dispersion term =     4960.7117680812 Hartrees.
 Leave Link  301 at Thu Feb  7 10:46:37 2019, MaxMem=   104857600 cpu:               3.0 elap:               0.2
 (Enter /home/xinyan/g16/l302.exe)
 NPDir=0 NMtPBC=     1 NCelOv=     1 NCel=       1 NClECP=     1 NCelD=      1
         NCelK=      1 NCelE2=     1 NClLst=     1 CellRange=     0.0.
 One-electron integrals computed using PRISM.
 One-electron integral symmetry used in STVInt
 PrsmSu:  requested number of processors reduced to:  23 ShMem   1 Linda.
 NBasis=   626 RedAO= T EigKep=  4.38D-04  NBF=   626
 NBsUse=   626 1.00D-06 EigRej= -1.00D+00 NBFU=   626
 Precomputing XC quadrature grid using
 IXCGrd= 4 IRadAn=           5 IRanWt=          -1 IRanGd=           0 AccXCQ= 0.00D+00.
 Generated NRdTot=       0 NPtTot=           0 NUsed=           0 NTot=          32
 NSgBfM=   617   617   617   617   617 MxSgAt=    77 MxSgA2=    77.
 Leave Link  302 at Thu Feb  7 10:46:41 2019, MaxMem=   104857600 cpu:              94.8 elap:               4.2
 (Enter /home/xinyan/g16/l303.exe)
 DipDrv:  MaxL=1.
 Leave Link  303 at Thu Feb  7 10:46:42 2019, MaxMem=   104857600 cpu:               4.4 elap:               0.2
 (Enter /home/xinyan/g16/l401.exe)
 ExpMin= 1.17D-01 ExpMax= 2.19D+04 ExpMxC= 3.30D+03 IAcc=3 IRadAn=         5 AccDes= 0.00D+00
 Harris functional with IExCor= 1009 and IRadAn=       5 diagonalized for initial guess.
 HarFok:  IExCor= 1009 AccDes= 0.00D+00 IRadAn=         5 IDoV= 1 UseB2=F ITyADJ=14
 ICtDFT=  3500011 ScaDFX=  1.000000  1.000000  1.000000  1.000000
 FoFCou: FMM=F IPFlag=           0 FMFlag=      100000 FMFlg1=        2001
         NFxFlg=           0 DoJE=T BraDBF=F KetDBF=T FulRan=T
         wScrn=  0.000000 ICntrl=       500 IOpCl=  0 I1Cent=   200000004 NGrid=           0
         NMat0=    1 NMatS0=      1 NMatT0=    0 NMatD0=    1 NMtDS0=    0 NMtDT0=    0
 Petite list used in FoFCou.
 Harris En= -1990.53529219276    
 JPrj=0 DoOrth=F DoCkMO=F.
 Leave Link  401 at Thu Feb  7 10:46:46 2019, MaxMem=   104857600 cpu:              98.3 elap:               4.1
 (Enter /home/xinyan/g16/l502.exe)
 Integral symmetry usage will be decided dynamically.
 Closed shell SCF:
 Using DIIS extrapolation, IDIIS=  1040.
 NGot=   104857600 LenX=   104051656 LenY=   103659154
 Requested convergence on RMS density matrix=1.00D-08 within 128 cycles.
 Requested convergence on MAX density matrix=1.00D-06.
 Requested convergence on             energy=1.00D-06.
 No special actions if energy rises.
 Fock matrices will be formed incrementally for  20 cycles.
 Integral accuracy reduced to 1.0D-05 until final iterations.

 Cycle   1  Pass 0  IDiag  1:
 FoFJK:  IHMeth= 1 ICntrl=       0 DoSepK=F KAlg= 0 I1Cent=           0 FoldK=F
 IRaf= 990000000 NMat=       1 IRICut=       1 DoRegI=T DoRafI=F ISym2E= 0 IDoP0=0 IntGTp=1.
 FoFCou: FMM=T IPFlag=           0 FMFlag=      100000 FMFlg1=        2001
         NFxFlg=           0 DoJE=F BraDBF=F KetDBF=F FulRan=T
         wScrn=  0.000000 ICntrl=         0 IOpCl=  0 I1Cent=           0 NGrid=           0
         NMat0=    1 NMatS0=      1 NMatT0=    0 NMatD0=    1 NMtDS0=    0 NMtDT0=    0
 Symmetry not used in FoFCou.
 FMM levels:  10  Number of levels for PrismC:   9
 E= -1990.28714722715    
 DIIS: error= 2.47D-02 at cycle   1 NSaved=   1.
 NSaved= 1 IEnMin= 1 EnMin= -1990.28714722715     IErMin= 1 ErrMin= 2.47D-02
 ErrMax= 2.47D-02  0.00D+00 EMaxC= 1.00D-01 BMatC= 1.25D+00 BMatP= 1.25D+00
 IDIUse=3 WtCom= 7.53D-01 WtEn= 2.47D-01
 Coeff-Com:  0.100D+01
 Coeff-En:   0.100D+01
 Coeff:      0.100D+01
 Gap=     0.359 Goal=   None    Shift=    0.000
 GapD=    0.359 DampG=1.000 DampE=0.500 DampFc=0.5000 IDamp=-1.
 Damping current iteration by 5.00D-01
 RMSDP=3.50D-03 MaxDP=3.47D-01              OVMax= 1.97D-01

 Cycle   2  Pass 0  IDiag  1:
 RMSU=  1.74D-03    CP:  9.89D-01
 E= -1990.80251061670     Delta-E=       -0.515363389556 Rises=F Damp=T
 DIIS: error= 8.62D-03 at cycle   2 NSaved=   2.
 NSaved= 2 IEnMin= 2 EnMin= -1990.80251061670     IErMin= 2 ErrMin= 8.62D-03
 ErrMax= 8.62D-03  0.00D+00 EMaxC= 1.00D-01 BMatC= 9.40D-02 BMatP= 1.25D+00
 IDIUse=3 WtCom= 9.14D-01 WtEn= 8.62D-02
 Coeff-Com: -0.244D-01 0.102D+01
 Coeff-En:   0.000D+00 0.100D+01
 Coeff:     -0.223D-01 0.102D+01
 Gap=     0.259 Goal=   None    Shift=    0.000
 RMSDP=8.74D-04 MaxDP=7.76D-02 DE=-5.15D-01 OVMax= 1.30D-01

 Cycle   3  Pass 0  IDiag  1:
 RMSU=  8.61D-04    CP:  9.82D-01  9.31D-01
 E= -1991.31269465492     Delta-E=       -0.510184038213 Rises=F Damp=F
 DIIS: error= 8.70D-03 at cycle   3 NSaved=   3.
 NSaved= 3 IEnMin= 3 EnMin= -1991.31269465492     IErMin= 2 ErrMin= 8.62D-03
 ErrMax= 8.70D-03  0.00D+00 EMaxC= 1.00D-01 BMatC= 5.20D-02 BMatP= 9.40D-02
 IDIUse=3 WtCom= 9.13D-01 WtEn= 8.70D-02
 Coeff-Com: -0.699D-01 0.445D+00 0.625D+00
 Coeff-En:   0.000D+00 0.000D+00 0.100D+01
 Coeff:     -0.638D-01 0.406D+00 0.658D+00
 Gap=     0.229 Goal=   None    Shift=    0.000
 RMSDP=5.30D-04 MaxDP=3.70D-02 DE=-5.10D-01 OVMax= 6.42D-02

 Cycle   4  Pass 0  IDiag  1:
 RMSU=  3.45D-04    CP:  9.85D-01  1.04D+00  5.94D-01
 E= -1991.34419082930     Delta-E=       -0.031496174384 Rises=F Damp=F
 DIIS: error= 4.10D-03 at cycle   4 NSaved=   4.
 NSaved= 4 IEnMin= 4 EnMin= -1991.34419082930     IErMin= 4 ErrMin= 4.10D-03
 ErrMax= 4.10D-03  0.00D+00 EMaxC= 1.00D-01 BMatC= 1.32D-02 BMatP= 5.20D-02
 IDIUse=3 WtCom= 9.59D-01 WtEn= 4.10D-02
 Coeff-Com: -0.270D-01 0.888D-01 0.362D+00 0.576D+00
 Coeff-En:   0.000D+00 0.000D+00 0.218D+00 0.782D+00
 Coeff:     -0.259D-01 0.852D-01 0.356D+00 0.585D+00
 Gap=     0.226 Goal=   None    Shift=    0.000
 RMSDP=2.15D-04 MaxDP=1.20D-02 DE=-3.15D-02 OVMax= 3.37D-02

 Cycle   5  Pass 0  IDiag  1:
 RMSU=  8.72D-05    CP:  9.84D-01  1.02D+00  7.31D-01  5.57D-01
 E= -1991.35521468389     Delta-E=       -0.011023854587 Rises=F Damp=F
 DIIS: error= 1.03D-03 at cycle   5 NSaved=   5.
 NSaved= 5 IEnMin= 5 EnMin= -1991.35521468389     IErMin= 5 ErrMin= 1.03D-03
 ErrMax= 1.03D-03  0.00D+00 EMaxC= 1.00D-01 BMatC= 6.12D-04 BMatP= 1.32D-02
 IDIUse=3 WtCom= 9.90D-01 WtEn= 1.03D-02
 Coeff-Com: -0.885D-02 0.206D-01 0.138D+00 0.286D+00 0.564D+00
 Coeff-En:   0.000D+00 0.000D+00 0.000D+00 0.000D+00 0.100D+01
 Coeff:     -0.876D-02 0.204D-01 0.137D+00 0.283D+00 0.569D+00
 Gap=     0.226 Goal=   None    Shift=    0.000
 RMSDP=5.16D-05 MaxDP=3.85D-03 DE=-1.10D-02 OVMax= 9.82D-03

 Cycle   6  Pass 0  IDiag  1:
 RMSU=  2.76D-05    CP:  9.84D-01  1.03D+00  7.29D-01  6.29D-01  5.90D-01
 E= -1991.35574566626     Delta-E=       -0.000530982375 Rises=F Damp=F
 DIIS: error= 3.30D-04 at cycle   6 NSaved=   6.
 NSaved= 6 IEnMin= 6 EnMin= -1991.35574566626     IErMin= 6 ErrMin= 3.30D-04
 ErrMax= 3.30D-04  0.00D+00 EMaxC= 1.00D-01 BMatC= 6.09D-05 BMatP= 6.12D-04
 IDIUse=3 WtCom= 9.97D-01 WtEn= 3.30D-03
 Coeff-Com: -0.163D-02 0.143D-02 0.305D-01 0.811D-01 0.291D+00 0.597D+00
 Coeff-En:   0.000D+00 0.000D+00 0.000D+00 0.000D+00 0.475D-02 0.995D+00
 Coeff:     -0.162D-02 0.143D-02 0.304D-01 0.808D-01 0.290D+00 0.599D+00
 Gap=     0.226 Goal=   None    Shift=    0.000
 RMSDP=1.51D-05 MaxDP=8.85D-04 DE=-5.31D-04 OVMax= 2.56D-03

 Cycle   7  Pass 0  IDiag  1:
 RMSU=  9.45D-06    CP:  9.84D-01  1.02D+00  7.31D-01  6.29D-01  6.75D-01
                    CP:  6.80D-01
 E= -1991.35580410989     Delta-E=       -0.000058443624 Rises=F Damp=F
 DIIS: error= 4.64D-05 at cycle   7 NSaved=   7.
 NSaved= 7 IEnMin= 7 EnMin= -1991.35580410989     IErMin= 7 ErrMin= 4.64D-05
 ErrMax= 4.64D-05  0.00D+00 EMaxC= 1.00D-01 BMatC= 3.74D-06 BMatP= 6.09D-05
 IDIUse=1 WtCom= 1.00D+00 WtEn= 0.00D+00
 Coeff-Com:  0.195D-03-0.139D-02-0.153D-02 0.493D-02 0.694D-01 0.249D+00
 Coeff-Com:  0.679D+00
 Coeff:      0.195D-03-0.139D-02-0.153D-02 0.493D-02 0.694D-01 0.249D+00
 Coeff:      0.679D+00
 Gap=     0.226 Goal=   None    Shift=    0.000
 RMSDP=4.43D-06 MaxDP=2.36D-04 DE=-5.84D-05 OVMax= 5.72D-04

 Initial convergence to 1.0D-05 achieved.  Increase integral accuracy.
 Cycle   8  Pass 1  IDiag  1:
 E= -1991.35581630809     Delta-E=       -0.000012198202 Rises=F Damp=F
 DIIS: error= 2.02D-04 at cycle   1 NSaved=   1.
 NSaved= 1 IEnMin= 1 EnMin= -1991.35581630809     IErMin= 1 ErrMin= 2.02D-04
 ErrMax= 2.02D-04  0.00D+00 EMaxC= 1.00D-01 BMatC= 1.35D-05 BMatP= 1.35D-05
 IDIUse=3 WtCom= 9.98D-01 WtEn= 2.02D-03
 Coeff-Com:  0.100D+01
 Coeff-En:   0.100D+01
 Coeff:      0.100D+01
 Gap=     0.226 Goal=   None    Shift=    0.000
 RMSDP=4.43D-06 MaxDP=2.36D-04 DE=-1.22D-05 OVMax= 4.69D-04

 Cycle   9  Pass 1  IDiag  1:
 RMSU=  7.54D-05    CP:  1.00D+00
 E= -1991.35582858699     Delta-E=       -0.000012278897 Rises=F Damp=F
 DIIS: error= 1.87D-05 at cycle   2 NSaved=   2.
 NSaved= 2 IEnMin= 2 EnMin= -1991.35582858699     IErMin= 2 ErrMin= 1.87D-05
 ErrMax= 1.87D-05  0.00D+00 EMaxC= 1.00D-01 BMatC= 6.96D-07 BMatP= 1.35D-05
 IDIUse=1 WtCom= 1.00D+00 WtEn= 0.00D+00
 Coeff-Com:  0.585D-01 0.942D+00
 Coeff:      0.585D-01 0.942D+00
 Gap=     0.226 Goal=   None    Shift=    0.000
 RMSDP=3.78D-06 MaxDP=2.01D-04 DE=-1.23D-05 OVMax= 3.71D-04

 Cycle  10  Pass 1  IDiag  1:
 RMSU=  3.07D-06    CP:  1.00D+00  1.03D+00
 E= -1991.35582830882     Delta-E=        0.000000278163 Rises=F Damp=F
 DIIS: error= 3.29D-05 at cycle   3 NSaved=   3.
 NSaved= 3 IEnMin= 2 EnMin= -1991.35582858699     IErMin= 2 ErrMin= 1.87D-05
 ErrMax= 3.29D-05  0.00D+00 EMaxC= 1.00D-01 BMatC= 1.06D-06 BMatP= 6.96D-07
 IDIUse=1 WtCom= 1.00D+00 WtEn= 0.00D+00
 Coeff-Com: -0.146D-01 0.558D+00 0.456D+00
 Coeff:     -0.146D-01 0.558D+00 0.456D+00
 Gap=     0.226 Goal=   None    Shift=    0.000
 RMSDP=1.70D-06 MaxDP=1.22D-04 DE= 2.78D-07 OVMax= 2.27D-04

 Cycle  11  Pass 1  IDiag  1:
 RMSU=  6.56D-07    CP:  1.00D+00  1.03D+00  4.98D-01
 E= -1991.35582920685     Delta-E=       -0.000000898022 Rises=F Damp=F
 DIIS: error= 4.53D-06 at cycle   4 NSaved=   4.
 NSaved= 4 IEnMin= 4 EnMin= -1991.35582920685     IErMin= 4 ErrMin= 4.53D-06
 ErrMax= 4.53D-06  0.00D+00 EMaxC= 1.00D-01 BMatC= 1.25D-08 BMatP= 6.96D-07
 IDIUse=1 WtCom= 1.00D+00 WtEn= 0.00D+00
 Coeff-Com: -0.817D-02 0.256D+00 0.222D+00 0.530D+00
 Coeff:     -0.817D-02 0.256D+00 0.222D+00 0.530D+00
 Gap=     0.226 Goal=   None    Shift=    0.000
 RMSDP=2.34D-07 MaxDP=1.32D-05 DE=-8.98D-07 OVMax= 4.31D-05

 Cycle  12  Pass 1  IDiag  1:
 RMSU=  2.05D-07    CP:  1.00D+00  1.03D+00  5.20D-01  8.66D-01
 E= -1991.35582921869     Delta-E=       -0.000000011842 Rises=F Damp=F
 DIIS: error= 1.55D-06 at cycle   5 NSaved=   5.
 NSaved= 5 IEnMin= 5 EnMin= -1991.35582921869     IErMin= 5 ErrMin= 1.55D-06
 ErrMax= 1.55D-06  0.00D+00 EMaxC= 1.00D-01 BMatC= 1.04D-09 BMatP= 1.25D-08
 IDIUse=1 WtCom= 1.00D+00 WtEn= 0.00D+00
 Coeff-Com: -0.688D-03 0.567D-02 0.781D-02 0.205D+00 0.782D+00
 Coeff:     -0.688D-03 0.567D-02 0.781D-02 0.205D+00 0.782D+00
 Gap=     0.226 Goal=   None    Shift=    0.000
 RMSDP=9.45D-08 MaxDP=4.40D-06 DE=-1.18D-08 OVMax= 1.46D-05

 Cycle  13  Pass 1  IDiag  1:
 RMSU=  7.24D-08    CP:  1.00D+00  1.03D+00  5.23D-01  9.50D-01  9.13D-01
 E= -1991.35582921981     Delta-E=       -0.000000001125 Rises=F Damp=F
 DIIS: error= 5.19D-07 at cycle   6 NSaved=   6.
 NSaved= 6 IEnMin= 6 EnMin= -1991.35582921981     IErMin= 6 ErrMin= 5.19D-07
 ErrMax= 5.19D-07  0.00D+00 EMaxC= 1.00D-01 BMatC= 2.63D-10 BMatP= 1.04D-09
 IDIUse=1 WtCom= 1.00D+00 WtEn= 0.00D+00
 Coeff-Com:  0.906D-03-0.369D-01-0.309D-01 0.364D-01 0.423D+00 0.607D+00
 Coeff:      0.906D-03-0.369D-01-0.309D-01 0.364D-01 0.423D+00 0.607D+00
 Gap=     0.226 Goal=   None    Shift=    0.000
 RMSDP=3.90D-08 MaxDP=1.77D-06 DE=-1.13D-09 OVMax= 6.76D-06

 Cycle  14  Pass 1  IDiag  1:
 RMSU=  2.90D-08    CP:  1.00D+00  1.03D+00  5.24D-01  9.71D-01  9.97D-01
                    CP:  8.15D-01
 E= -1991.35582922008     Delta-E=       -0.000000000263 Rises=F Damp=F
 DIIS: error= 1.61D-07 at cycle   7 NSaved=   7.
 NSaved= 7 IEnMin= 7 EnMin= -1991.35582922008     IErMin= 7 ErrMin= 1.61D-07
 ErrMax= 1.61D-07  0.00D+00 EMaxC= 1.00D-01 BMatC= 2.07D-11 BMatP= 2.63D-10
 IDIUse=1 WtCom= 1.00D+00 WtEn= 0.00D+00
 Coeff-Com:  0.456D-03-0.164D-01-0.143D-01-0.115D-02 0.105D+00 0.268D+00
 Coeff-Com:  0.659D+00
 Coeff:      0.456D-03-0.164D-01-0.143D-01-0.115D-02 0.105D+00 0.268D+00
 Coeff:      0.659D+00
 Gap=     0.226 Goal=   None    Shift=    0.000
 RMSDP=1.17D-08 MaxDP=6.06D-07 DE=-2.63D-10 OVMax= 2.06D-06

 Cycle  15  Pass 1  IDiag  1:
 RMSU=  8.70D-09    CP:  1.00D+00  1.03D+00  5.24D-01  9.77D-01  1.00D+00
                    CP:  9.05D-01  1.02D+00
 E= -1991.35582922005     Delta-E=        0.000000000022 Rises=F Damp=F
 DIIS: error= 4.73D-08 at cycle   8 NSaved=   8.
 NSaved= 8 IEnMin= 7 EnMin= -1991.35582922008     IErMin= 8 ErrMin= 4.73D-08
 ErrMax= 4.73D-08  0.00D+00 EMaxC= 1.00D-01 BMatC= 2.41D-12 BMatP= 2.07D-11
 IDIUse=1 WtCom= 1.00D+00 WtEn= 0.00D+00
 Coeff-Com: -0.405D-05 0.997D-03 0.418D-03-0.658D-02-0.484D-01-0.134D-01
 Coeff-Com:  0.240D+00 0.827D+00
 Coeff:     -0.405D-05 0.997D-03 0.418D-03-0.658D-02-0.484D-01-0.134D-01
 Coeff:      0.240D+00 0.827D+00
 Gap=     0.226 Goal=   None    Shift=    0.000
 RMSDP=5.21D-09 MaxDP=2.82D-07 DE= 2.18D-11 OVMax= 9.60D-07

 SCF Done:  E(RM062X) =  -1991.35582922     A.U. after   15 cycles
            NFock= 15  Conv=0.52D-08     -V/T= 2.0076
 KE= 1.976411071433D+03 PE=-1.457359848726D+04 EE= 5.645119818526D+03
 Leave Link  502 at Thu Feb  7 10:49:26 2019, MaxMem=   104857600 cpu:            3839.8 elap:             160.3
 (Enter /home/xinyan/g16/l601.exe)
 Copying SCF densities to generalized density rwf, IOpCl= 0 IROHF=0.

 **********************************************************************

            Population analysis using the SCF density.

 **********************************************************************

 Orbital symmetries:
       Occupied  (A) (A) (A) (A) (A) (A) (A) (A) (A) (A) (A) (A)
                 (A) (A) (A) (A) (A) (A) (A) (A) (A) (A) (A) (A)
                 (A) (A) (A) (A) (A) (A) (A) (A) (A) (A) (A) (A)
                 (A) (A) (A) (A) (A) (A) (A) (A) (A) (A) (A) (A)
                 (A) (A) (A) (A) (A) (A) (A) (A) (A) (A) (A) (A)
                 (A) (A) (A) (A) (A) (A) (A) (A) (A) (A) (A) (A)
                 (A) (A) (A) (A) (A) (A) (A) (A) (A) (A) (A) (A)
                 (A) (A) (A) (A) (A) (A) (A) (A) (A) (A) (A) (A)
                 (A) (A) (A) (A) (A) (A) (A) (A) (A) (A) (A) (A)
                 (A) (A) (A) (A) (A) (A) (A) (A) (A) (A) (A) (A)
                 (A) (A) (A) (A) (A) (A) (A) (A) (A) (A) (A) (A)
                 (A) (A) (A) (A) (A) (A) (A) (A)
       Virtual   (A) (A) (A) (A) (A) (A) (A) (A) (A) (A) (A) (A)
                 (A) (A) (A) (A) (A) (A) (A) (A) (A) (A) (A) (A)
                 (A) (A) (A) (A) (A) (A) (A) (A) (A) (A) (A) (A)
                 (A) (A) (A) (A) (A) (A) (A) (A) (A) (A) (A) (A)
                 (A) (A) (A) (A) (A) (A) (A) (A) (A) (A) (A) (A)
                 (A) (A) (A) (A) (A) (A) (A) (A) (A) (A) (A) (A)
                 (A) (A) (A) (A) (A) (A) (A) (A) (A) (A) (A) (A)
                 (A) (A) (A) (A) (A) (A) (A) (A) (A) (A) (A) (A)
                 (A) (A) (A) (A) (A) (A) (A) (A) (A) (A) (A) (A)
                 (A) (A) (A) (A) (A) (A) (A) (A) (A) (A) (A) (A)
                 (A) (A) (A) (A) (A) (A) (A) (A) (A) (A) (A) (A)
                 (A) (A) (A) (A) (A) (A) (A) (A) (A) (A) (A) (A)
                 (A) (A) (A) (A) (A) (A) (A) (A) (A) (A) (A) (A)
                 (A) (A) (A) (A) (A) (A) (A) (A) (A) (A) (A) (A)
                 (A) (A) (A) (A) (A) (A) (A) (A) (A) (A) (A) (A)
                 (A) (A) (A) (A) (A) (A) (A) (A) (A) (A) (A) (A)
                 (A) (A) (A) (A) (A) (A) (A) (A) (A) (A) (A) (A)
                 (A) (A) (A) (A) (A) (A) (A) (A) (A) (A) (A) (A)
                 (A) (A) (A) (A) (A) (A) (A) (A) (A) (A) (A) (A)
                 (A) (A) (A) (A) (A) (A) (A) (A) (A) (A) (A) (A)
                 (A) (A) (A) (A) (A) (A) (A) (A) (A) (A) (A) (A)
                 (A) (A) (A) (A) (A) (A) (A) (A) (A) (A) (A) (A)
                 (A) (A) (A) (A) (A) (A) (A) (A) (A) (A) (A) (A)
                 (A) (A) (A) (A) (A) (A) (A) (A) (A) (A) (A) (A)
                 (A) (A) (A) (A) (A) (A) (A) (A) (A) (A) (A) (A)
                 (A) (A) (A) (A) (A) (A) (A) (A) (A) (A) (A) (A)
                 (A) (A) (A) (A) (A) (A) (A) (A) (A) (A) (A) (A)
                 (A) (A) (A) (A) (A) (A) (A) (A) (A) (A) (A) (A)
                 (A) (A) (A) (A) (A) (A) (A) (A) (A) (A) (A) (A)
                 (A) (A) (A) (A) (A) (A) (A) (A) (A) (A) (A) (A)
                 (A) (A) (A) (A) (A) (A) (A) (A) (A) (A) (A) (A)
                 (A) (A) (A) (A) (A) (A) (A) (A) (A) (A) (A) (A)
                 (A) (A) (A) (A) (A) (A) (A) (A) (A) (A) (A) (A)
                 (A) (A) (A) (A) (A) (A) (A) (A) (A) (A) (A) (A)
                 (A) (A) (A) (A) (A) (A) (A) (A) (A) (A) (A) (A)
                 (A) (A) (A) (A) (A) (A) (A) (A) (A) (A) (A) (A)
                 (A) (A) (A) (A) (A) (A) (A) (A) (A) (A) (A) (A)
                 (A) (A) (A) (A) (A) (A) (A) (A) (A) (A) (A) (A)
                 (A) (A) (A) (A) (A) (A) (A) (A) (A) (A) (A) (A)
                 (A) (A) (A) (A) (A) (A) (A) (A) (A) (A) (A) (A)
                 (A) (A) (A) (A) (A) (A)
 The electronic state is 1-A.
 Alpha  occ. eigenvalues --  -90.14806 -19.62393 -19.62168 -19.58617 -19.56829
 Alpha  occ. eigenvalues --  -19.50466 -14.85220 -14.80067 -14.76721 -10.63184
 Alpha  occ. eigenvalues --  -10.62646 -10.62157 -10.62062 -10.61094 -10.59900
 Alpha  occ. eigenvalues --  -10.57803 -10.57787 -10.57619 -10.57025 -10.57007
 Alpha  occ. eigenvalues --  -10.56910 -10.56293 -10.55889 -10.55098 -10.55088
 Alpha  occ. eigenvalues --  -10.55004 -10.54843 -10.54688 -10.54667 -10.54645
 Alpha  occ. eigenvalues --  -10.54464 -10.54105 -10.53082 -10.51089 -10.50979
 Alpha  occ. eigenvalues --  -10.49471  -8.45774  -6.38002  -6.37954  -6.37817
 Alpha  occ. eigenvalues --   -1.22588  -1.13504  -1.12899  -1.10803  -1.08915
 Alpha  occ. eigenvalues --   -1.05835  -1.02522  -0.99616  -0.95864  -0.95190
 Alpha  occ. eigenvalues --   -0.93499  -0.90161  -0.88599  -0.86537  -0.85323
 Alpha  occ. eigenvalues --   -0.84937  -0.84868  -0.83735  -0.83267  -0.83090
 Alpha  occ. eigenvalues --   -0.76597  -0.75928  -0.75586  -0.74279  -0.73290
 Alpha  occ. eigenvalues --   -0.71786  -0.68223  -0.68168  -0.67768  -0.67508
 Alpha  occ. eigenvalues --   -0.66458  -0.65495  -0.64844  -0.63376  -0.60493
 Alpha  occ. eigenvalues --   -0.60360  -0.59961  -0.59465  -0.57905  -0.57694
 Alpha  occ. eigenvalues --   -0.57190  -0.56436  -0.55730  -0.55120  -0.54373
 Alpha  occ. eigenvalues --   -0.53582  -0.53087  -0.52695  -0.52486  -0.52138
 Alpha  occ. eigenvalues --   -0.51702  -0.50804  -0.50178  -0.49914  -0.49342
 Alpha  occ. eigenvalues --   -0.49221  -0.48978  -0.48444  -0.48152  -0.47982
 Alpha  occ. eigenvalues --   -0.47738  -0.47623  -0.47170  -0.46146  -0.45816
 Alpha  occ. eigenvalues --   -0.45205  -0.45099  -0.44372  -0.43923  -0.43221
 Alpha  occ. eigenvalues --   -0.42503  -0.42305  -0.41141  -0.40923  -0.40799
 Alpha  occ. eigenvalues --   -0.40671  -0.40427  -0.40066  -0.39838  -0.39385
 Alpha  occ. eigenvalues --   -0.39199  -0.38903  -0.38599  -0.38348  -0.37846
 Alpha  occ. eigenvalues --   -0.37357  -0.36503  -0.36424  -0.36083  -0.35001
 Alpha  occ. eigenvalues --   -0.34492  -0.34267  -0.31771  -0.31347  -0.29989
 Alpha  occ. eigenvalues --   -0.29197  -0.28812  -0.27749  -0.24095  -0.23878
 Alpha virt. eigenvalues --   -0.01259   0.00543   0.03241   0.03569   0.10134
 Alpha virt. eigenvalues --    0.10587   0.11324   0.12550   0.13168   0.13281
 Alpha virt. eigenvalues --    0.14119   0.14431   0.14977   0.15489   0.15553
 Alpha virt. eigenvalues --    0.16206   0.16464   0.16921   0.17299   0.17662
 Alpha virt. eigenvalues --    0.17928   0.18100   0.18182   0.18660   0.19048
 Alpha virt. eigenvalues --    0.19220   0.19436   0.19907   0.20001   0.20212
 Alpha virt. eigenvalues --    0.20468   0.20919   0.21160   0.21319   0.21416
 Alpha virt. eigenvalues --    0.21983   0.22188   0.22599   0.22870   0.23368
 Alpha virt. eigenvalues --    0.23579   0.24018   0.24514   0.24657   0.24770
 Alpha virt. eigenvalues --    0.25157   0.25417   0.25697   0.26136   0.26622
 Alpha virt. eigenvalues --    0.26914   0.27213   0.27933   0.28377   0.28455
 Alpha virt. eigenvalues --    0.28929   0.29335   0.29545   0.30441   0.30831
 Alpha virt. eigenvalues --    0.30970   0.31707   0.31820   0.32164   0.32366
 Alpha virt. eigenvalues --    0.33262   0.34032   0.35076   0.35398   0.35679
 Alpha virt. eigenvalues --    0.36076   0.37244   0.37641   0.37968   0.38915
 Alpha virt. eigenvalues --    0.39727   0.40194   0.40354   0.42341   0.42746
 Alpha virt. eigenvalues --    0.43999   0.44629   0.46763   0.47837   0.48978
 Alpha virt. eigenvalues --    0.49216   0.50911   0.52360   0.53309   0.54483
 Alpha virt. eigenvalues --    0.54923   0.55456   0.55969   0.56787   0.57240
 Alpha virt. eigenvalues --    0.57583   0.57961   0.58632   0.59177   0.59530
 Alpha virt. eigenvalues --    0.59907   0.60122   0.60424   0.60586   0.60889
 Alpha virt. eigenvalues --    0.61302   0.61767   0.62427   0.62469   0.62958
 Alpha virt. eigenvalues --    0.63734   0.63900   0.64378   0.64749   0.65601
 Alpha virt. eigenvalues --    0.66028   0.66158   0.66725   0.67511   0.67916
 Alpha virt. eigenvalues --    0.68163   0.68717   0.69341   0.70067   0.70543
 Alpha virt. eigenvalues --    0.70814   0.71518   0.71925   0.73001   0.73129
 Alpha virt. eigenvalues --    0.73573   0.74380   0.74706   0.75075   0.75943
 Alpha virt. eigenvalues --    0.76630   0.77425   0.77563   0.77900   0.78856
 Alpha virt. eigenvalues --    0.79188   0.79789   0.79886   0.80216   0.80949
 Alpha virt. eigenvalues --    0.81386   0.81758   0.83051   0.83554   0.84220
 Alpha virt. eigenvalues --    0.84513   0.85140   0.85290   0.85477   0.86365
 Alpha virt. eigenvalues --    0.87604   0.88409   0.88859   0.89270   0.89660
 Alpha virt. eigenvalues --    0.90055   0.90155   0.90312   0.90836   0.91352
 Alpha virt. eigenvalues --    0.91749   0.92001   0.92394   0.92699   0.93361
 Alpha virt. eigenvalues --    0.93525   0.93991   0.94379   0.94823   0.95050
 Alpha virt. eigenvalues --    0.95437   0.95533   0.96373   0.96705   0.96832
 Alpha virt. eigenvalues --    0.96962   0.97553   0.97891   0.98023   0.98669
 Alpha virt. eigenvalues --    0.98971   0.99430   0.99714   0.99775   1.00749
 Alpha virt. eigenvalues --    1.01060   1.01367   1.02099   1.02531   1.02760
 Alpha virt. eigenvalues --    1.02938   1.03869   1.04271   1.04493   1.05297
 Alpha virt. eigenvalues --    1.06144   1.06659   1.07362   1.08298   1.08704
 Alpha virt. eigenvalues --    1.09299   1.09944   1.10593   1.11398   1.11839
 Alpha virt. eigenvalues --    1.12751   1.13136   1.13551   1.14217   1.15354
 Alpha virt. eigenvalues --    1.16129   1.16831   1.18178   1.18817   1.18973
 Alpha virt. eigenvalues --    1.19548   1.19813   1.20372   1.21033   1.21155
 Alpha virt. eigenvalues --    1.22702   1.23605   1.24392   1.24485   1.25475
 Alpha virt. eigenvalues --    1.26072   1.26447   1.27993   1.28526   1.29628
 Alpha virt. eigenvalues --    1.30743   1.31280   1.32087   1.32355   1.32751
 Alpha virt. eigenvalues --    1.33434   1.34271   1.35134   1.35501   1.36590
 Alpha virt. eigenvalues --    1.37019   1.38295   1.39108   1.40621   1.40853
 Alpha virt. eigenvalues --    1.41435   1.42006   1.43978   1.45428   1.46558
 Alpha virt. eigenvalues --    1.47302   1.47738   1.48699   1.49545   1.50640
 Alpha virt. eigenvalues --    1.51002   1.52147   1.52340   1.52888   1.54163
 Alpha virt. eigenvalues --    1.54549   1.54981   1.55266   1.55845   1.57058
 Alpha virt. eigenvalues --    1.57426   1.58344   1.59495   1.60000   1.61062
 Alpha virt. eigenvalues --    1.62223   1.62758   1.63900   1.64639   1.67074
 Alpha virt. eigenvalues --    1.68929   1.69659   1.69840   1.72211   1.73664
 Alpha virt. eigenvalues --    1.74179   1.74786   1.75763   1.76361   1.76689
 Alpha virt. eigenvalues --    1.78322   1.79357   1.80515   1.80998   1.82643
 Alpha virt. eigenvalues --    1.83471   1.83777   1.84294   1.85479   1.86082
 Alpha virt. eigenvalues --    1.86219   1.86834   1.87575   1.87796   1.88656
 Alpha virt. eigenvalues --    1.89207   1.89431   1.90366   1.90851   1.91059
 Alpha virt. eigenvalues --    1.92485   1.93233   1.93661   1.94023   1.94380
 Alpha virt. eigenvalues --    1.94724   1.95345   1.96083   1.96830   1.97199
 Alpha virt. eigenvalues --    1.97662   1.99042   1.99380   1.99844   2.00605
 Alpha virt. eigenvalues --    2.00962   2.01943   2.02133   2.03010   2.04224
 Alpha virt. eigenvalues --    2.04794   2.05648   2.05718   2.06335   2.06781
 Alpha virt. eigenvalues --    2.07270   2.07624   2.08644   2.09433   2.09759
 Alpha virt. eigenvalues --    2.10047   2.10410   2.10683   2.11509   2.11903
 Alpha virt. eigenvalues --    2.12686   2.13459   2.14490   2.14812   2.15369
 Alpha virt. eigenvalues --    2.16139   2.16427   2.17577   2.18140   2.18525
 Alpha virt. eigenvalues --    2.19322   2.19895   2.20513   2.21004   2.21044
 Alpha virt. eigenvalues --    2.22091   2.22603   2.23057   2.23662   2.23721
 Alpha virt. eigenvalues --    2.24686   2.24906   2.25699   2.26714   2.27495
 Alpha virt. eigenvalues --    2.28168   2.29090   2.29881   2.30631   2.31073
 Alpha virt. eigenvalues --    2.31950   2.33582   2.34676   2.34904   2.35218
 Alpha virt. eigenvalues --    2.35895   2.37015   2.37539   2.38067   2.38262
 Alpha virt. eigenvalues --    2.39670   2.40838   2.41052   2.41277   2.41768
 Alpha virt. eigenvalues --    2.42590   2.44532   2.45681   2.46501   2.47483
 Alpha virt. eigenvalues --    2.49173   2.49855   2.51101   2.52025   2.52525
 Alpha virt. eigenvalues --    2.53429   2.54111   2.56076   2.56964   2.59262
 Alpha virt. eigenvalues --    2.60897   2.61278   2.61688   2.62374   2.63490
 Alpha virt. eigenvalues --    2.64007   2.64975   2.65092   2.67084   2.68299
 Alpha virt. eigenvalues --    2.69072   2.69489   2.70073   2.71559   2.72001
 Alpha virt. eigenvalues --    2.72817   2.74382   2.75765   2.76107   2.77660
 Alpha virt. eigenvalues --    2.78766   2.79432   2.80295   2.81026   2.81402
 Alpha virt. eigenvalues --    2.83382   2.85935   2.86285   2.86573   2.88464
 Alpha virt. eigenvalues --    2.89716   2.91062   2.92970   2.93329   2.96264
 Alpha virt. eigenvalues --    3.00019   3.00631   3.01120   3.05198   3.10304
 Alpha virt. eigenvalues --    3.14482   3.17453   3.24135   3.41591   3.42562
 Alpha virt. eigenvalues --    3.93266   4.00246   4.03567   4.08848   4.12048
 Alpha virt. eigenvalues --    4.13737   4.15320   4.15918   4.17809   4.18974
 Alpha virt. eigenvalues --    4.20522   4.22138   4.23951   4.26101   4.26995
 Alpha virt. eigenvalues --    4.28541   4.31031   4.32610   4.34694   4.35545
 Alpha virt. eigenvalues --    4.38363   4.39658   4.40850   4.43397   4.45691
 Alpha virt. eigenvalues --    4.46079   4.55499   4.58107   4.59169   4.61063
 Alpha virt. eigenvalues --    4.62495   4.66002   4.73284   4.74869   4.76903
 Alpha virt. eigenvalues --    4.78416
          Condensed to atoms (all electrons):
 Mulliken charges:
               1
     1  C   -0.306387
     2  C   -0.307818
     3  C   -0.310830
     4  C   -0.059544
     5  C    0.062478
     6  C   -0.307370
     7  H    0.175586
     8  H    0.163249
     9  H    0.166856
    10  H    0.150954
    11  H    0.165064
    12  H    0.206802
    13  H    0.175365
    14  H    0.193545
    15  H    0.161713
    16  H    0.156178
    17  N   -0.437505
    18  C    0.076995
    19  C    0.076725
    20  C   -0.207462
    21  H    0.203425
    22  C   -0.218726
    23  H    0.243063
    24  C    0.449804
    25  H    0.192163
    26  H    0.209987
    27  N   -0.519000
    28  C   -0.166892
    29  H    0.166941
    30  H    0.223135
    31  C   -0.146617
    32  H    0.160575
    33  H    0.205739
    34  N   -0.804471
    35  S    1.240361
    36  O   -0.603197
    37  O   -0.591596
    38  C    0.053377
    39  C   -0.196104
    40  C   -0.192101
    41  C   -0.172297
    42  C   -0.165505
    43  C   -0.205399
    44  H    0.231655
    45  H    0.141729
    46  H    0.156022
    47  H    0.159576
    48  H    0.153746
    49  O   -0.587924
    50  H    0.445097
    51  C    0.717412
    52  O   -0.700048
    53  O   -0.706310
    54  H    0.432097
    55  C   -0.340669
    56  H    0.143354
    57  H    0.150410
    58  C   -0.082632
    59  H    0.132715
    60  H    0.155523
    61  C   -0.665464
    62  H    0.270682
    63  H    0.200047
    64  H    0.222164
    65  C   -0.285499
    66  H    0.141233
    67  H    0.140374
    68  C   -0.474425
    69  H    0.147886
    70  H    0.149761
    71  H    0.147952
    72  C   -0.333780
    73  H    0.184879
    74  H    0.160002
    75  C   -0.338852
    76  H    0.204400
    77  H    0.165630
 Sum of Mulliken charges =  -0.00000
 Mulliken charges with hydrogens summed into heavy atoms:
               1
     1  C    0.009631
     2  C    0.022287
     3  C    0.020933
     4  C    0.147258
     5  C    0.237844
     6  C    0.047888
    17  N   -0.437505
    18  C    0.280420
    19  C    0.319788
    20  C   -0.015298
    22  C   -0.008739
    24  C    0.449804
    27  N   -0.519000
    28  C    0.223184
    31  C    0.219697
    34  N   -0.359374
    35  S    1.240361
    36  O   -0.603197
    37  O   -0.591596
    38  C    0.053377
    39  C    0.035551
    40  C   -0.050372
    41  C   -0.016275
    42  C   -0.005930
    43  C   -0.051653
    49  O   -0.587924
    51  C    0.717412
    52  O   -0.700048
    53  O   -0.274212
    55  C   -0.046905
    58  C    0.205605
    61  C    0.027429
    65  C   -0.003892
    68  C   -0.028827
    72  C    0.011101
    75  C    0.031178
 Electronic spatial extent (au):  <R**2>=          14592.9940
 Charge=             -0.0000 electrons
 Dipole moment (field-independent basis, Debye):
    X=             -3.6142    Y=             -1.7394    Z=             -5.7570  Tot=              7.0165
 Quadrupole moment (field-independent basis, Debye-Ang):
   XX=           -208.5860   YY=           -222.0498   ZZ=           -218.6456
   XY=            -13.2641   XZ=             -4.1284   YZ=             10.6820
 Traceless Quadrupole moment (field-independent basis, Debye-Ang):
   XX=              7.8411   YY=             -5.6226   ZZ=             -2.2185
   XY=            -13.2641   XZ=             -4.1284   YZ=             10.6820
 Octapole moment (field-independent basis, Debye-Ang**2):
  XXX=              2.4482  YYY=            -52.4658  ZZZ=             17.3651  XYY=              4.6927
  XXY=            -25.4384  XXZ=            -41.9504  XZZ=            -23.7434  YZZ=             15.5134
  YYZ=             19.0645  XYZ=            -18.0177
 Hexadecapole moment (field-independent basis, Debye-Ang**3):
 XXXX=         -10046.1393 YYYY=          -5479.5978 ZZZZ=          -3622.4650 XXXY=           -207.5926
 XXXZ=             -2.2534 YYYX=           -103.0601 YYYZ=             42.1869 ZZZX=           -106.6636
 ZZZY=              4.4676 XXYY=          -2602.5245 XXZZ=          -2373.6711 YYZZ=          -1623.7011
 XXYZ=             47.0221 YYXZ=             48.1095 ZZXY=            -56.5038
 N-N= 4.960711768081D+03 E-N=-1.457359846124D+04  KE= 1.976411071433D+03
 No NMR shielding tensors so no spin-rotation constants.
 Leave Link  601 at Thu Feb  7 10:49:27 2019, MaxMem=   104857600 cpu:              22.9 elap:               1.1
 (Enter /home/xinyan/g16/l701.exe)
 ... and contract with generalized density number  0.
 Compute integral first derivatives.
 R6Disp: Adding Grimme-D3 dispersion energy 1st derivatives to the gradient.
 Leave Link  701 at Thu Feb  7 10:49:28 2019, MaxMem=   104857600 cpu:              22.3 elap:               1.0
 (Enter /home/xinyan/g16/l702.exe)
 L702 exits ... SP integral derivatives will be done elsewhere.
 Leave Link  702 at Thu Feb  7 10:49:28 2019, MaxMem=   104857600 cpu:               1.4 elap:               0.1
 (Enter /home/xinyan/g16/l703.exe)
 Integral derivatives from FoFJK, PRISM(SPDF).
 Compute integral first derivatives, UseDBF=F ICtDFT=           0.
 Calling FoFJK, ICntrl=      2127 FMM=T ISym2X=0 I1Cent= 0 IOpClX= 0 NMat=1 NMatS=1 NMatT=0.
 FoFJK:  IHMeth= 1 ICntrl=    2127 DoSepK=F KAlg= 0 I1Cent=           0 FoldK=F
 IRaf=         0 NMat=       1 IRICut=       1 DoRegI=T DoRafI=F ISym2E= 0 IDoP0=0 IntGTp=1.
 FoFCou: FMM=T IPFlag=           0 FMFlag=      100000 FMFlg1=        2001
         NFxFlg=           0 DoJE=F BraDBF=F KetDBF=F FulRan=T
         wScrn=  0.000000 ICntrl=      2127 IOpCl=  0 I1Cent=           0 NGrid=           0
         NMat0=    1 NMatS0=      1 NMatT0=    0 NMatD0=    1 NMtDS0=    0 NMtDT0=    0
 Symmetry not used in FoFCou.
 FMM levels:  10  Number of levels for PrismC:   9
 Leave Link  703 at Thu Feb  7 10:50:02 2019, MaxMem=   104857600 cpu:             800.2 elap:              33.5
 (Enter /home/xinyan/g16/l716.exe)
 Dipole        =-1.42194438D+00-6.84339178D-01-2.26499119D+00
 ***** Axes restored to original set *****
 -------------------------------------------------------------------
 Center     Atomic                   Forces (Hartrees/Bohr)
 Number     Number              X              Y              Z
 -------------------------------------------------------------------
      1        6          -0.000013839   -0.000013324   -0.000026486
      2        6           0.000001818   -0.000003869    0.000004464
      3        6          -0.000008625   -0.000018600   -0.000017121
      4        6           0.000018421    0.000021827    0.000025280
      5        6          -0.000034761   -0.000049053   -0.000018905
      6        6           0.000004633   -0.000007951   -0.000021948
      7        1          -0.000000613   -0.000011029   -0.000012419
      8        1           0.000003881   -0.000005903   -0.000016425
      9        1          -0.000004844   -0.000009600   -0.000013348
     10        1          -0.000012017   -0.000009181   -0.000020643
     11        1           0.000000497   -0.000007205   -0.000014618
     12        1          -0.000007138   -0.000002281   -0.000016291
     13        1          -0.000025657   -0.000039367   -0.000055375
     14        1           0.000013678    0.000013206   -0.000025689
     15        1           0.000024251    0.000003959   -0.000022591
     16        1          -0.000009034   -0.000013914   -0.000023539
     17        7          -0.000001157   -0.000015715    0.000003603
     18        6           0.000013342    0.000011172   -0.000031259
     19        6          -0.000014703   -0.000001039   -0.000000973
     20        6          -0.000006268    0.000006622    0.000021820
     21        1           0.000014628   -0.000003602   -0.000007394
     22        6           0.000003433    0.000024098    0.000017400
     23        1           0.000002156   -0.000009358   -0.000014412
     24        6          -0.000027771   -0.000038599   -0.000009457
     25        1           0.000013711    0.000008389    0.000000245
     26        1           0.000005734    0.000007819   -0.000001438
     27        7           0.000020374    0.000057282    0.000007586
     28        6          -0.000004127    0.000028250    0.000036172
     29        1          -0.000002794    0.000013437    0.000018813
     30        1          -0.000010152    0.000010446    0.000006475
     31        6          -0.000010019    0.000018398    0.000042299
     32        1          -0.000015147    0.000040378    0.000029476
     33        1          -0.000002940    0.000049684    0.000046542
     34        7           0.000575879    0.000375852   -0.000186371
     35       16           0.000010904    0.000027308   -0.000050894
     36        8          -0.000054129   -0.000021786    0.000045901
     37        8           0.000022774    0.000043365   -0.000056640
     38        6           0.000040028   -0.000017688    0.000023832
     39        6          -0.000002889    0.000030062   -0.000007939
     40        6           0.000005681    0.000033147    0.000047463
     41        6          -0.000031430    0.000015740    0.000053609
     42        6           0.000010978   -0.000034127    0.000068614
     43        6          -0.000000547   -0.000035346    0.000021558
     44        1          -0.000009593    0.000022127   -0.000033335
     45        1          -0.000009720    0.000055858    0.000004772
     46        1          -0.000029778    0.000028277    0.000054633
     47        1          -0.000015990   -0.000021303    0.000081541
     48        1          -0.000003114   -0.000056900    0.000077009
     49        8          -0.000147549    0.000187152    0.000088928
     50        1          -0.000349073   -0.000399319   -0.000085164
     51        6           0.000249736   -0.000111061    0.000110194
     52        8          -0.000222143   -0.000003585    0.000043771
     53        8          -0.000064206    0.000001276   -0.000028845
     54        1           0.000031788    0.000026384    0.000059411
     55        6          -0.000042297    0.000024240   -0.000056765
     56        1           0.000052820   -0.000002980   -0.000010732
     57        1          -0.000022101   -0.000072238   -0.000044448
     58        6          -0.000010153   -0.000042196    0.000037566
     59        1           0.000035019   -0.000013295    0.000024443
     60        1           0.000012955    0.000002537    0.000007973
     61        6           0.000014531    0.000027354   -0.000028631
     62        1           0.000016105    0.000031945    0.000019713
     63        1           0.000018793    0.000024742   -0.000035974
     64        1          -0.000004303    0.000025749   -0.000020104
     65        6          -0.000019859   -0.000036627   -0.000026772
     66        1          -0.000051468   -0.000037411   -0.000043941
     67        1          -0.000015341   -0.000002161    0.000000976
     68        6           0.000024617   -0.000040243   -0.000057664
     69        1           0.000015869   -0.000060059   -0.000054690
     70        1           0.000051438   -0.000050329   -0.000031838
     71        1           0.000024270   -0.000089610   -0.000069779
     72        6          -0.000010930    0.000015219    0.000015265
     73        1          -0.000004515    0.000017249    0.000030419
     74        1          -0.000007909    0.000031610    0.000023366
     75        6          -0.000020428    0.000002254    0.000039256
     76        1           0.000017717    0.000021775    0.000024788
     77        1          -0.000011385    0.000021665    0.000035684
 -------------------------------------------------------------------
 Cartesian Forces:  Max     0.000575879 RMS     0.000071698
 Z-matrix is all fixed cartesians, so copy forces.
 Leave Link  716 at Thu Feb  7 10:50:02 2019, MaxMem=   104857600 cpu:               2.4 elap:               0.1
 (Enter /home/xinyan/g16/l103.exe)

 GradGradGradGradGradGradGradGradGradGradGradGradGradGradGradGradGradGrad
 Berny optimization.
 Search for a local minimum.
 Step number   1 out of a maximum of    2
 All quantities printed in internal units (Hartrees-Bohrs-Radians)
 Second derivative matrix not updated -- first step.
 ITU=  0
     Eigenvalues ---   -0.00000   0.00000   0.00000   0.00000   0.00000
     Eigenvalues ---    0.00000   0.00004   0.00013   0.00018   0.00023
     Eigenvalues ---    0.00037   0.00038   0.00088   0.00094   0.00114
     Eigenvalues ---    0.00137   0.00138   0.00207   0.00235   0.00289
     Eigenvalues ---    0.00402   0.00413   0.00456   0.00506   0.00588
     Eigenvalues ---    0.00600   0.00628   0.00692   0.00714   0.00840
     Eigenvalues ---    0.00966   0.01095   0.01151   0.01542   0.01638
     Eigenvalues ---    0.01670   0.01844   0.01904   0.02040   0.02135
     Eigenvalues ---    0.02290   0.02319   0.02475   0.02526   0.02866
     Eigenvalues ---    0.02921   0.03049   0.03088   0.03258   0.03512
     Eigenvalues ---    0.03536   0.03805   0.03887   0.04186   0.04293
     Eigenvalues ---    0.04395   0.04794   0.04815   0.04845   0.04935
     Eigenvalues ---    0.05026   0.05063   0.05114   0.05137   0.05158
     Eigenvalues ---    0.05170   0.05253   0.05336   0.05475   0.05582
     Eigenvalues ---    0.05656   0.05675   0.05733   0.05749   0.05814
     Eigenvalues ---    0.05898   0.06153   0.06300   0.06557   0.06692
     Eigenvalues ---    0.06835   0.06843   0.06958   0.06974   0.07108
     Eigenvalues ---    0.07141   0.07236   0.07272   0.07335   0.07380
     Eigenvalues ---    0.07624   0.07844   0.07899   0.07944   0.08118
     Eigenvalues ---    0.08520   0.08591   0.08966   0.09079   0.09682
     Eigenvalues ---    0.09740   0.10182   0.10529   0.11284   0.11538
     Eigenvalues ---    0.11772   0.12210   0.12689   0.12800   0.12853
     Eigenvalues ---    0.12938   0.13011   0.13363   0.13702   0.13857
     Eigenvalues ---    0.14069   0.14481   0.14646   0.15471   0.16038
     Eigenvalues ---    0.16067   0.16509   0.16701   0.16967   0.17057
     Eigenvalues ---    0.17296   0.17497   0.17843   0.17955   0.19585
     Eigenvalues ---    0.19721   0.20330   0.20714   0.21452   0.21651
     Eigenvalues ---    0.23330   0.23535   0.24166   0.24828   0.26372
     Eigenvalues ---    0.27459   0.28439   0.29524   0.30045   0.31061
     Eigenvalues ---    0.31467   0.32386   0.33821   0.34691   0.36059
     Eigenvalues ---    0.36404   0.39399   0.40283   0.40798   0.43338
     Eigenvalues ---    0.43647   0.44482   0.48017   0.49286   0.50229
     Eigenvalues ---    0.53053   0.56789   0.56972   0.59423   0.64395
     Eigenvalues ---    0.65491   0.65546   0.67055   0.68166   0.68840
     Eigenvalues ---    0.70457   0.77174   0.77908   0.78709   0.81778
     Eigenvalues ---    0.82992   0.83371   0.84441   0.86218   0.87470
     Eigenvalues ---    0.88384   0.88706   0.90646   0.91374   0.92662
     Eigenvalues ---    0.94479   0.94830   0.94971   0.95843   0.96543
     Eigenvalues ---    0.98054   0.98159   0.99699   1.00304   1.00502
     Eigenvalues ---    1.00943   1.04145   1.04392   1.04754   1.06184
     Eigenvalues ---    1.06477   1.06805   1.07005   1.08757   1.09378
     Eigenvalues ---    1.14223   1.15368   1.15875   1.18288   1.19517
     Eigenvalues ---    1.21517   1.23828   1.27031   1.28370   1.37046
     Eigenvalues ---    1.47347   1.53361   1.58293   1.59050   1.59556
     Eigenvalues ---    1.67397   1.67772   1.73082   1.84323   2.37013
 Eigenvalue     1 is  -2.22D-16 should be greater than     0.000000 Eigenvector:
                          Y71       Y57       Y70       Y68       Y56
   1                    0.13428   0.13428   0.13428   0.13428   0.13428
                          Y69       Y55       Y53       Y65       Y66
   1                    0.13428   0.13428   0.13428   0.13428   0.13428
 Eigenvalue     2 is   3.30D-08 Eigenvector:
                          Y46       Y47       X54       Y41       Y42
   1                    0.26289   0.24489  -0.22122   0.21810   0.20799
                          X53       Y45       Y40       X52       X51
   1                   -0.19593   0.17755   0.17015  -0.16326  -0.15219
 Eigenvalue     3 is   6.20D-08 Eigenvector:
                          X46       Z47       X45       Z46       Z42
   1                    0.20509  -0.20300   0.19168  -0.17088  -0.16582
                          X41       Z71       X40       Z48       Z41
   1                    0.16574   0.16274   0.15801  -0.15000  -0.14795
 Eigenvalue     4 is   1.57D-07 Eigenvector:
                          Z54       Z53       Z77       Z76       Z52
   1                    0.19489   0.18440  -0.18133  -0.17404   0.16612
                          Z57       Z75       Z51       Y64       Z33
   1                    0.16578  -0.15565   0.15181   0.14924  -0.14731
 Eigenvalue     5 is   2.42D-07 Eigenvector:
                          Y71       Y69       Z47       Y73       Y9
   1                    0.17880   0.16070  -0.15807  -0.14869   0.14614
                          Y68       Y47       X70       Z46       Z42
   1                    0.14552  -0.14541  -0.14222  -0.13654  -0.13089
 Eigenvalue     6 is   3.14D-07 Eigenvector:
                          Z54       Y59       Y45       Z70       Z69
   1                    0.23695   0.21315  -0.21252  -0.19296  -0.18352
                          Z53       Y48       Y64       Y69       Y54
   1                    0.17920   0.17579  -0.17345  -0.17284   0.15355
 Eigenvalue     7 is   4.08D-05 Eigenvector:
                          X69       Z70       X45       Z69       X70
   1                    0.24200   0.22894  -0.22780   0.22729   0.21839
                          X46       X68       Y45       Z68       Z54
   1                   -0.21641   0.19248  -0.18919   0.18493  -0.17469
 Quadratic step=3.196D+00 exceeds max=3.000D-01 adjusted using Lamda=-1.131D-03.
 Angle between NR and scaled steps=  17.79 degrees.
 Angle between quadratic step and forces=  67.88 degrees.
 Linear search not attempted -- first point.
 B after Tr=    -0.000369    0.000764    0.000987
         Rot=    1.000000   -0.000154    0.000071   -0.000045 Ang=  -0.02 deg.
 Variable       Old X    -DE/DX   Delta X   Delta X   Delta X     New X
                                 (Linear)    (Quad)   (Total)
    X1       -9.42342  -0.00001   0.00000   0.00147   0.00118  -9.42224
    Y1        0.43639  -0.00001   0.00000  -0.00666  -0.00649   0.42991
    Z1       -0.81160  -0.00003   0.00000  -0.01640  -0.01663  -0.82823
    X2       -9.70010   0.00000   0.00000  -0.00061  -0.00046  -9.70056
    Y2       -1.98087  -0.00000   0.00000  -0.01070  -0.01007  -1.99094
    Z2       -2.37873   0.00000   0.00000  -0.01010  -0.01111  -2.38984
    X3       -7.14434  -0.00001   0.00000  -0.00233  -0.00195  -7.14628
    Y3       -2.79940  -0.00002   0.00000  -0.01391  -0.01272  -2.81212
    Z3       -3.47182  -0.00002   0.00000  -0.01209  -0.01299  -3.48481
    X4       -5.28522   0.00002   0.00000   0.00008   0.00019  -5.28504
    Y4       -3.21601   0.00002   0.00000  -0.00836  -0.00766  -3.22367
    Z4       -1.30875   0.00003   0.00000  -0.01319  -0.01395  -1.32270
    X5       -4.95210  -0.00003   0.00000   0.00358   0.00325  -4.94886
    Y5       -0.76560  -0.00005   0.00000  -0.00350  -0.00325  -0.76885
    Z5        0.25353  -0.00002   0.00000  -0.02292  -0.02287   0.23065
    X6       -7.49819   0.00000   0.00000   0.00638   0.00582  -7.49237
    Y6        0.10146  -0.00001   0.00000   0.00028  -0.00003   0.10143
    Z6        1.32228  -0.00002   0.00000  -0.01957  -0.01962   1.30266
    X7       -7.32229  -0.00000   0.00000  -0.00410  -0.00340  -7.32569
    Y7       -4.52442  -0.00001   0.00000  -0.01681  -0.01529  -4.53971
    Z7       -4.60128  -0.00001   0.00000  -0.00736  -0.00881  -4.61009
    X8      -10.45330   0.00000   0.00000   0.00117   0.00129 -10.45202
    Y8       -3.50174  -0.00001   0.00000  -0.00773  -0.00754  -3.50928
    Z8       -1.18531  -0.00002   0.00000  -0.00522  -0.00681  -1.19212
    X9      -11.05144  -0.00000   0.00000  -0.00302  -0.00268 -11.05412
    Y9       -1.69518  -0.00001   0.00000  -0.01449  -0.01351  -1.70869
    Z9       -3.91808  -0.00001   0.00000  -0.00870  -0.00982  -3.92790
   X10       -8.79579  -0.00001   0.00000  -0.00221  -0.00246  -8.79825
   Y10        1.98023  -0.00001   0.00000  -0.00937  -0.00876   1.97146
   Z10       -2.04950  -0.00002   0.00000  -0.02163  -0.02129  -2.07079
   X11      -11.25593   0.00000   0.00000   0.00282   0.00237 -11.25356
   Y11        0.99118  -0.00001   0.00000  -0.00571  -0.00594   0.98524
   Z11       -0.02827  -0.00001   0.00000  -0.01388  -0.01420  -0.04247
   X12       -6.00952  -0.00001   0.00000   0.00124   0.00131  -6.00821
   Y12       -4.69892  -0.00000   0.00000  -0.00433  -0.00409  -4.70301
   Z12       -0.06079  -0.00002   0.00000  -0.00774  -0.00906  -0.06985
   X13       -4.29933  -0.00003   0.00000  -0.00000  -0.00028  -4.29961
   Y13        0.69982  -0.00004   0.00000  -0.00886  -0.00814   0.69168
   Z13       -1.06136  -0.00006   0.00000  -0.03058  -0.03000  -1.09136
   X14       -8.18319   0.00001   0.00000   0.00955   0.00891  -8.17428
   Y14       -1.28721   0.00001   0.00000   0.00475   0.00395  -1.28325
   Z14        2.69556  -0.00003   0.00000  -0.01352  -0.01410   2.68146
   X15       -7.19585   0.00002   0.00000   0.00905   0.00819  -7.18766
   Y15        1.89294   0.00000   0.00000   0.00342   0.00284   1.89578
   Z15        2.31586  -0.00002   0.00000  -0.02602  -0.02547   2.29039
   X16       -6.46213  -0.00001   0.00000  -0.00393  -0.00350  -6.46563
   Y16       -1.28908  -0.00001   0.00000  -0.01716  -0.01551  -1.30459
   Z16       -4.72124  -0.00002   0.00000  -0.01689  -0.01723  -4.73847
   X17       -2.75197  -0.00000   0.00000   0.00045   0.00076  -2.75121
   Y17       -4.06869  -0.00002   0.00000  -0.00866  -0.00748  -4.07618
   Z17       -2.11855   0.00000   0.00000  -0.01098  -0.01164  -2.13019
   X18       -1.45244   0.00001   0.00000   0.00246   0.00290  -1.44954
   Y18       -2.77623   0.00001   0.00000  -0.00650  -0.00466  -2.78089
   Z18       -3.92056  -0.00003   0.00000  -0.00802  -0.00809  -3.92865
   X19       -1.44008  -0.00001   0.00000  -0.00067  -0.00046  -1.44055
   Y19       -5.60194  -0.00000   0.00000  -0.00621  -0.00541  -5.60735
   Z19       -0.52875  -0.00000   0.00000  -0.00767  -0.00861  -0.53736
   X20        1.10481  -0.00001   0.00000   0.00340   0.00389   1.10870
   Y20       -2.92099   0.00001   0.00000  -0.00046   0.00168  -2.91931
   Z20       -4.14353   0.00002   0.00000  -0.00043  -0.00018  -4.14371
   X21       -2.56545   0.00001   0.00000   0.00340   0.00391  -2.56154
   Y21       -1.57106  -0.00000   0.00000  -0.00831  -0.00619  -1.57725
   Z21       -5.14264  -0.00001   0.00000  -0.01062  -0.01049  -5.15313
   X22        1.11978   0.00000   0.00000  -0.00001   0.00023   1.12001
   Y22       -5.81966   0.00002   0.00000  -0.00073   0.00032  -5.81934
   Z22       -0.61401   0.00002   0.00000  -0.00064  -0.00128  -0.61529
   X23       -2.55228   0.00000   0.00000  -0.00236  -0.00227  -2.55455
   Y23       -6.56570  -0.00001   0.00000  -0.00793  -0.00767  -6.57337
   Z23        0.89749  -0.00001   0.00000  -0.01016  -0.01156   0.88593
   X24        2.53686  -0.00003   0.00000   0.00126   0.00161   2.53848
   Y24       -4.31124  -0.00004   0.00000   0.00331   0.00502  -4.30622
   Z24       -2.32875  -0.00001   0.00000   0.00409   0.00411  -2.32464
   X25        2.03045   0.00001   0.00000   0.00528   0.00588   2.03633
   Y25       -1.84029   0.00001   0.00000   0.00193   0.00460  -1.83569
   Z25       -5.61139   0.00000   0.00000   0.00249   0.00320  -5.60819
   X26        2.03268   0.00001   0.00000  -0.00123  -0.00109   2.03160
   Y26       -6.98382   0.00001   0.00000   0.00144   0.00215  -6.98168
   Z26        0.79395  -0.00000   0.00000   0.00195   0.00108   0.79503
   X27        5.04277   0.00002   0.00000   0.00069   0.00102   5.04379
   Y27       -4.22320   0.00006   0.00000   0.01090   0.01280  -4.21040
   Z27       -2.24486   0.00001   0.00000   0.01264   0.01306  -2.23181
   X28        6.42212  -0.00000   0.00000  -0.00347  -0.00337   6.41875
   Y28       -5.20200   0.00003   0.00000   0.01160   0.01294  -5.18906
   Z28       -0.03694   0.00004   0.00000   0.01550   0.01581  -0.02113
   X29        6.17651  -0.00000   0.00000  -0.00050  -0.00024   6.17628
   Y29       -7.24744   0.00001   0.00000   0.01105   0.01232  -7.23512
   Z29        0.12999   0.00002   0.00000   0.01322   0.01286   0.14286
   X30        5.69140  -0.00001   0.00000  -0.00929  -0.00952   5.68189
   Y30       -4.23680   0.00001   0.00000   0.00906   0.00982  -4.22699
   Z30        1.65128   0.00001   0.00000   0.01441   0.01491   1.66619
   X31        6.48562  -0.00001   0.00000  -0.00119  -0.00086   6.48476
   Y31       -2.21170   0.00002   0.00000   0.01718   0.01961  -2.19209
   Z31       -3.51737   0.00004   0.00000   0.02051   0.02175  -3.49561
   X32        7.00453  -0.00002   0.00000   0.00311   0.00376   7.00830
   Y32       -2.81915   0.00004   0.00000   0.02320   0.02626  -2.79289
   Z32       -5.43066   0.00003   0.00000   0.01981   0.02094  -5.40972
   X33        5.33925  -0.00000   0.00000  -0.00432  -0.00413   5.33512
   Y33       -0.49645   0.00005   0.00000   0.01527   0.01760  -0.47885
   Z33       -3.57833   0.00005   0.00000   0.02312   0.02472  -3.55361
   X34       -2.91672   0.00058   0.00000   0.00950   0.00893  -2.90779
   Y34       -0.96780   0.00038   0.00000   0.00184   0.00171  -0.96609
   Z34        2.08340  -0.00019   0.00000  -0.02892  -0.02864   2.05476
   X35       -2.94160   0.00001   0.00000   0.01262   0.01182  -2.92978
   Y35       -2.66123   0.00003   0.00000   0.01491   0.01399  -2.64724
   Z35        4.66144  -0.00005   0.00000  -0.02013  -0.02037   4.64107
   X36       -5.25761  -0.00005   0.00000   0.00955   0.00889  -5.24872
   Y36       -4.17497  -0.00002   0.00000   0.01902   0.01790  -4.15708
   Z36        4.61343   0.00005   0.00000  -0.00626  -0.00730   4.60613
   X37       -0.52364   0.00002   0.00000   0.01080   0.01009  -0.51356
   Y37       -3.97855   0.00004   0.00000   0.01154   0.01076  -3.96779
   Z37        4.90728  -0.00006   0.00000  -0.02039  -0.02069   4.88658
   X38       -1.28675   0.00004   0.00000  -0.00030  -0.00113  -1.28788
   Y38        4.59309  -0.00002   0.00000   0.00644   0.00699   4.60008
   Z38        0.29928   0.00002   0.00000   0.02520   0.02742   0.32670
   X39       -0.34042  -0.00000   0.00000  -0.00131  -0.00172  -0.34213
   Y39        3.54503   0.00003   0.00000   0.01973   0.02106   3.56609
   Z39       -1.94243  -0.00001   0.00000   0.01834   0.02038  -1.92205
   X40       -1.72056   0.00001   0.00000  -0.00947  -0.00958  -1.73013
   Y40        3.73153   0.00003   0.00000   0.01996   0.02184   3.75337
   Z40       -4.18009   0.00005   0.00000   0.02336   0.02526  -4.15484
   X41       -4.06903  -0.00003   0.00000  -0.01716  -0.01737  -4.08640
   Y41        4.92723   0.00002   0.00000   0.00533   0.00701   4.93425
   Z41       -4.22571   0.00005   0.00000   0.03539   0.03731  -4.18840
   X42       -5.03208   0.00001   0.00000  -0.01668  -0.01730  -5.04937
   Y42        5.95385  -0.00003   0.00000  -0.00978  -0.00886   5.94498
   Z42       -2.00005   0.00007   0.00000   0.04249   0.04458  -1.95547
   X43       -3.64260  -0.00000   0.00000  -0.00824  -0.00917  -3.65177
   Y43        5.78740  -0.00004   0.00000  -0.00893  -0.00858   5.77882
   Z43        0.23321   0.00002   0.00000   0.03715   0.03939   0.27261
   X44        1.43326  -0.00001   0.00000   0.00546   0.00513   1.43839
   Y44        2.50391   0.00002   0.00000   0.03042   0.03188   2.53579
   Z44       -1.85256  -0.00003   0.00000   0.00814   0.01011  -1.84244
   X45       -0.94377  -0.00001   0.00000  -0.00984  -0.00963  -0.95340
   Y45        2.94279   0.00006   0.00000   0.03207   0.03456   2.97736
   Z45       -5.91337   0.00000   0.00000   0.01765   0.01941  -5.89396
   X46       -5.13221  -0.00003   0.00000  -0.02351  -0.02349  -5.15570
   Y46        5.07025   0.00003   0.00000   0.00588   0.00801   5.07826
   Z46       -5.97641   0.00005   0.00000   0.03930   0.04111  -5.93530
   X47       -6.85989  -0.00002   0.00000  -0.02275  -0.02346  -6.88335
   Y47        6.88926  -0.00002   0.00000  -0.02167  -0.02093   6.86833
   Z47       -2.00266   0.00008   0.00000   0.05223   0.05434  -1.94831
   X48       -4.40635  -0.00000   0.00000  -0.00780  -0.00905  -4.41540
   Y48        6.60006  -0.00006   0.00000  -0.02065  -0.02090   6.57916
   Z48        1.96106   0.00008   0.00000   0.04287   0.04525   2.00631
   X49        1.04290  -0.00015   0.00000   0.00230   0.00122   1.04412
   Y49        2.13908   0.00019   0.00000   0.01176   0.01150   2.15058
   Z49        3.58228   0.00009   0.00000   0.02752   0.02932   3.61160
   X50       -1.20032  -0.00035   0.00000   0.01054   0.00994  -1.19038
   Y50       -0.09745  -0.00040   0.00000  -0.00689  -0.00677  -0.10422
   Z50        1.77065  -0.00009   0.00000  -0.04039  -0.03960   1.73105
   X51        3.56238   0.00025   0.00000  -0.01221  -0.01305   3.54933
   Y51        0.98829  -0.00011   0.00000  -0.00811  -0.00784   0.98045
   Z51        2.60907   0.00011   0.00000   0.01296   0.01475   2.62382
   X52        3.23253  -0.00022   0.00000  -0.03929  -0.03972   3.19281
   Y52       -0.03577  -0.00000   0.00000  -0.01651  -0.01560  -0.05137
   Z52        0.41411   0.00004   0.00000   0.02094   0.02237   0.43648
   X53        4.05027  -0.00006   0.00000  -0.00615  -0.00711   4.04316
   Y53       -0.73641   0.00000   0.00000  -0.00148  -0.00177  -0.73818
   Z53        4.59489  -0.00003   0.00000   0.01708   0.01842   4.61331
   X54        2.73542   0.00003   0.00000  -0.01507  -0.01589   2.71952
   Y54       -2.01687   0.00003   0.00000   0.00577   0.00540  -2.01146
   Z54        4.44683   0.00006   0.00000   0.03474   0.03550   4.48233
   X55        5.63188  -0.00004   0.00000   0.00289   0.00185   5.63373
   Y55        3.03293   0.00002   0.00000  -0.02026  -0.01985   3.01308
   Z55        2.83389  -0.00006   0.00000  -0.01476  -0.01204   2.82185
   X56        5.22231   0.00005   0.00000   0.02896   0.02758   5.24989
   Y56        4.27864  -0.00000   0.00000  -0.01373  -0.01385   4.26479
   Z56        4.44080  -0.00001   0.00000  -0.01315  -0.01010   4.43070
   X57        7.37796  -0.00002   0.00000   0.00117   0.00015   7.37811
   Y57        2.02868  -0.00007   0.00000  -0.03130  -0.03089   1.99778
   Z57        3.32953  -0.00004   0.00000  -0.03113  -0.02848   3.30105
   X58        0.18888  -0.00001   0.00000   0.00848   0.00731   0.19619
   Y58        4.51083  -0.00004   0.00000   0.01111   0.01103   4.52186
   Z58        2.77824   0.00004   0.00000   0.02020   0.02260   2.80084
   X59       -1.07809   0.00004   0.00000   0.01677   0.01532  -1.06277
   Y59        5.22158  -0.00001   0.00000   0.02119   0.02054   5.24211
   Z59        4.26577   0.00002   0.00000   0.02234   0.02478   4.29056
   X60        1.75671   0.00001   0.00000   0.01268   0.01140   1.76811
   Y60        5.87013   0.00000   0.00000   0.00533   0.00543   5.87556
   Z60        2.67049   0.00001   0.00000   0.00853   0.01158   2.68206
   X61       -3.05784   0.00001   0.00000   0.02214   0.02079  -3.03705
   Y61       -0.42241   0.00003   0.00000   0.02587   0.02417  -0.39824
   Z61        7.16371  -0.00003   0.00000  -0.02924  -0.02881   7.13489
   X62       -1.38986   0.00002   0.00000   0.02465   0.02322  -1.36663
   Y62        0.77558   0.00003   0.00000   0.02106   0.01959   0.79517
   Z62        6.91899   0.00002   0.00000  -0.03544  -0.03440   6.88459
   X63       -4.80771   0.00002   0.00000   0.02442   0.02299  -4.78472
   Y63        0.65458   0.00002   0.00000   0.02927   0.02746   0.68204
   Z63        6.99384  -0.00004   0.00000  -0.03126  -0.03074   6.96310
   X64       -2.99276  -0.00000   0.00000   0.02150   0.01998  -2.97277
   Y64       -1.46006   0.00003   0.00000   0.03279   0.03055  -1.42951
   Z64        8.94449  -0.00002   0.00000  -0.02515  -0.02502   8.91946
   X65        6.09059  -0.00002   0.00000  -0.01136  -0.01219   6.07840
   Y65        4.56070  -0.00004   0.00000  -0.02848  -0.02730   4.53341
   Z65        0.42959  -0.00003   0.00000  -0.02274  -0.01949   0.41010
   X66        6.62128  -0.00005   0.00000  -0.04104  -0.04154   6.57974
   Y66        3.26176  -0.00004   0.00000  -0.03559  -0.03389   3.22787
   Z66       -1.09396  -0.00004   0.00000  -0.02704  -0.02412  -1.11808
   X67        4.34654  -0.00002   0.00000  -0.01039  -0.01122   4.33532
   Y67        5.47259  -0.00000   0.00000  -0.01308  -0.01186   5.46073
   Z67       -0.21817   0.00000   0.00000  -0.00375  -0.00046  -0.21863
   X68        8.13795   0.00002   0.00000   0.01195   0.01089   8.14884
   Y68        6.56037  -0.00004   0.00000  -0.04732  -0.04605   6.51432
   Z68        0.79983  -0.00006   0.00000  -0.04899  -0.04484   0.75499
   X69        8.50543   0.00002   0.00000   0.00202   0.00111   8.50654
   Y69        7.61747  -0.00006   0.00000  -0.05268  -0.05085   7.56661
   Z69       -0.93944  -0.00005   0.00000  -0.05435  -0.04982  -0.98926
   X70        7.58487   0.00005   0.00000   0.04196   0.04057   7.62544
   Y70        7.91928  -0.00005   0.00000  -0.04055  -0.03978   7.87950
   Z70        2.26121  -0.00003   0.00000  -0.04389  -0.03939   2.22182
   X71        9.91698   0.00002   0.00000   0.01072   0.00965   9.92663
   Y71        5.69223  -0.00009   0.00000  -0.06371  -0.06247   5.62976
   Z71        1.40756  -0.00007   0.00000  -0.06861  -0.06448   1.34309
   X72        9.14421  -0.00001   0.00000  -0.00351  -0.00341   9.14081
   Y72       -4.42734   0.00002   0.00000   0.01616   0.01791  -4.40943
   Z72       -0.57009   0.00002   0.00000   0.02233   0.02327  -0.54683
   X73       10.27032  -0.00000   0.00000  -0.00712  -0.00727  10.26305
   Y73       -4.34941   0.00002   0.00000   0.01534   0.01666  -4.33275
   Z73        1.15632   0.00003   0.00000   0.02473   0.02585   1.18218
   X74       10.03248  -0.00001   0.00000   0.00095   0.00136  10.03384
   Y74       -5.76336   0.00003   0.00000   0.01924   0.02147  -5.74189
   Z74       -1.87954   0.00002   0.00000   0.02225   0.02290  -1.85664
   X75        8.79099  -0.00002   0.00000  -0.00460  -0.00455   8.78644
   Y75       -1.84228   0.00000   0.00000   0.01734   0.01944  -1.82284
   Z75       -1.81206   0.00004   0.00000   0.02519   0.02687  -1.78519
   X76        8.28480   0.00002   0.00000  -0.00840  -0.00868   8.27613
   Y76       -0.46174   0.00002   0.00000   0.01475   0.01636  -0.44537
   Z76       -0.35980   0.00002   0.00000   0.02628   0.02831  -0.33149
   X77       10.44652  -0.00001   0.00000  -0.00363  -0.00349  10.44303
   Y77       -1.18068   0.00002   0.00000   0.02076   0.02333  -1.15736
   Z77       -2.85169   0.00004   0.00000   0.02896   0.03108  -2.82061
         Item               Value     Threshold  Converged?
 Maximum Force            0.000576     0.000450     NO 
 RMS     Force            0.000072     0.000300     YES
 Maximum Displacement     0.064476     0.001800     NO 
 RMS     Displacement     0.019702     0.001200     NO 
 Predicted change in Energy=-1.153456D-04
 GradGradGradGradGradGradGradGradGradGradGradGradGradGradGradGradGradGrad

 Leave Link  103 at Thu Feb  7 10:50:03 2019, MaxMem=   104857600 cpu:              26.9 elap:               1.2
 (Enter /home/xinyan/g16/l9999.exe)
 1\1\GINC-TSE4\Force\RM062X\6-31G(d)\C27H41N3O5S1\STEVETSE\07-Feb-2019\
 0\\#p M062X/6-31G* em=gd3 force int=ultrafine\\Title\\0,1\C,-4.98666,0
 .23093,-0.42948\C,-5.13307,-1.04823,-1.25877\C,-3.78062,-1.48138,-1.83
 721\C,-2.79682,-1.70184,-0.69256\C,-2.62054,-0.40514,0.13416\C,-3.9678
 7,0.05369,0.69972\H,-3.87479,-2.39422,-2.43489\H,-5.53165,-1.85304,-0.
 62724\H,-5.84817,-0.89705,-2.07336\H,-4.65453,1.04789,-1.08455\H,-5.95
 638,0.52451,-0.01496\H,-3.1801,-2.48656,-0.03217\H,-2.27511,0.37033,-0
 .56165\H,-4.33036,-0.68116,1.42643\H,-3.80788,1.0017,1.2255\H,-3.41961
 ,-0.68215,-2.49837\N,-1.45628,-2.15306,-1.12109\C,-0.7686,-1.46912,-2.
 07467\C,-0.76206,-2.96442,-0.2798\C,0.58464,-1.54572,-2.19266\H,-1.357
 58,-0.83137,-2.72137\C,0.59256,-3.07963,-0.32492\H,-1.35061,-3.47442,0
 .47493\C,1.34245,-2.28141,-1.23232\H,1.07447,-0.97384,-2.96942\H,1.075
 65,-3.69568,0.42014\N,2.66852,-2.23482,-1.18793\C,3.39844,-2.75278,-0.
 01955\H,3.26847,-3.83518,0.06879\H,3.01176,-2.24202,0.87382\C,3.43204,
 -1.17038,-1.86131\H,3.70664,-1.49183,-2.87378\H,2.82541,-0.26271,-1.89
 357\N,-1.54346,-0.51214,1.10249\S,-1.55663,-1.40826,2.46673\O,-2.78221
 ,-2.2093,2.44132\O,-0.2771,-2.10536,2.59682\C,-0.68092,2.43056,0.15837
 \C,-0.18014,1.87595,-1.02789\C,-0.91048,1.97464,-2.21201\C,-2.15324,2.
 60738,-2.23615\C,-2.66286,3.15064,-1.05838\C,-1.92758,3.06256,0.12341\
 H,0.75845,1.32501,-0.98033\H,-0.49942,1.55726,-3.12922\H,-2.71585,2.68
 306,-3.16258\H,-3.6301,3.64564,-1.05976\H,-2.33174,3.4926,1.03775\O,0.
 55188,1.13195,1.89566\H,-0.63518,-0.05157,0.93699\C,1.88513,0.52298,1.
 38066\O,1.71058,-0.01893,0.21914\O,2.14331,-0.38969,2.43151\H,1.44752,
 -1.06728,2.35316\C,2.98026,1.60496,1.49963\H,2.76353,2.26416,2.34997\H
 ,3.90425,1.07353,1.76191\C,0.09995,2.38703,1.47018\H,-0.5705,2.76314,2
 .25735\H,0.92961,3.10634,1.41316\C,-1.61814,-0.22353,3.79087\H,-0.7354
 8,0.41042,3.66137\H,-2.54413,0.34639,3.70098\H,-1.5837,-0.77263,4.7332
 2\C,3.223,2.41342,0.22733\H,3.50383,1.72605,-0.5789\H,2.30009,2.89597,
 -0.11545\C,4.30642,3.4716,0.42325\H,4.50088,4.03099,-0.49713\H,4.01374
 ,4.1907,1.19658\H,5.24784,3.0122,0.74485\C,4.83891,-2.34285,-0.30168\H
 ,5.43482,-2.30161,0.6119\H,5.30896,-3.04984,-0.99461\C,4.65199,-0.9748
 9,-0.9589\H,4.38413,-0.24434,-0.1904\H,5.52806,-0.62479,-1.50905\\Vers
 ion=ES64L-G16RevA.03\State=1-A\HF=-1991.3558292\RMSD=5.215e-09\RMSF=7.
 170e-05\Dipole=-1.3898239,-0.6385993,-2.2980451\Quadrupole=6.1408237,-
 4.8582002,-1.2826235,-9.7236365,-3.360345,7.7145439\PG=C01 [X(C27H41N3
 O5S1)]\\@


 THE ... SCIENTISTS WERE WRONG ... THE MOST PERSISTENT PRINCIPLES 
 OF THE UNIVERSE WERE ACCIDENT AND ERROR.

                          -- FRANK HERBERT IN DUNE
 Job cpu time:       0 days  1 hours 22 minutes 11.5 seconds.
 Elapsed time:       0 days  0 hours  3 minutes 26.7 seconds.
 File lengths (MBytes):  RWF=    216 Int=      0 D2E=      0 Chk=     25 Scr=      1
 Normal termination of Gaussian 16 at Thu Feb  7 10:50:03 2019.
