 Entering Gaussian System, Link 0=g16
 Input=C27N3H41SO5-261.gjf
 Output=C27N3H41SO5-261.log
 Initial command:
 /home/xinyan/g16/l1.exe "/local/home/tmp/Gau-6693.inp" -scrdir="/local/home/tmp/"
 Entering Link 1 = /home/xinyan/g16/l1.exe PID=      6694.
  
 Copyright (c) 1988,1990,1992,1993,1995,1998,2003,2009,2016,
            Gaussian, Inc.  All Rights Reserved.
  
 This is part of the Gaussian(R) 16 program.  It is based on
 the Gaussian(R) 09 system (copyright 2009, Gaussian, Inc.),
 the Gaussian(R) 03 system (copyright 2003, Gaussian, Inc.),
 the Gaussian(R) 98 system (copyright 1998, Gaussian, Inc.),
 the Gaussian(R) 94 system (copyright 1995, Gaussian, Inc.),
 the Gaussian 92(TM) system (copyright 1992, Gaussian, Inc.),
 the Gaussian 90(TM) system (copyright 1990, Gaussian, Inc.),
 the Gaussian 88(TM) system (copyright 1988, Gaussian, Inc.),
 the Gaussian 86(TM) system (copyright 1986, Carnegie Mellon
 University), and the Gaussian 82(TM) system (copyright 1983,
 Carnegie Mellon University). Gaussian is a federally registered
 trademark of Gaussian, Inc.
  
 This software contains proprietary and confidential information,
 including trade secrets, belonging to Gaussian, Inc.
  
 This software is provided under written license and may be
 used, copied, transmitted, or stored only in accord with that
 written license.
  
 The following legend is applicable only to US Government
 contracts under FAR:
  
                    RESTRICTED RIGHTS LEGEND
  
 Use, reproduction and disclosure by the US Government is
 subject to restrictions as set forth in subparagraphs (a)
 and (c) of the Commercial Computer Software - Restricted
 Rights clause in FAR 52.227-19.
  
 Gaussian, Inc.
 340 Quinnipiac St., Bldg. 40, Wallingford CT 06492
  
  
 ---------------------------------------------------------------
 Warning -- This program may not be used in any manner that
 competes with the business of Gaussian, Inc. or will provide
 assistance to any competitor of Gaussian, Inc.  The licensee
 of this program is prohibited from giving any competitor of
 Gaussian, Inc. access to this program.  By using this program,
 the user acknowledges that Gaussian, Inc. is engaged in the
 business of creating and licensing software in the field of
 computational chemistry and represents and warrants to the
 licensee that it is not a competitor of Gaussian, Inc. and that
 it will not use this program in any manner prohibited above.
 ---------------------------------------------------------------
  

 Cite this work as:
 Gaussian 16, Revision A.03,
 M. J. Frisch, G. W. Trucks, H. B. Schlegel, G. E. Scuseria, 
 M. A. Robb, J. R. Cheeseman, G. Scalmani, V. Barone, 
 G. A. Petersson, H. Nakatsuji, X. Li, M. Caricato, A. V. Marenich, 
 J. Bloino, B. G. Janesko, R. Gomperts, B. Mennucci, H. P. Hratchian, 
 J. V. Ortiz, A. F. Izmaylov, J. L. Sonnenberg, D. Williams-Young, 
 F. Ding, F. Lipparini, F. Egidi, J. Goings, B. Peng, A. Petrone, 
 T. Henderson, D. Ranasinghe, V. G. Zakrzewski, J. Gao, N. Rega, 
 G. Zheng, W. Liang, M. Hada, M. Ehara, K. Toyota, R. Fukuda, 
 J. Hasegawa, M. Ishida, T. Nakajima, Y. Honda, O. Kitao, H. Nakai, 
 T. Vreven, K. Throssell, J. A. Montgomery, Jr., J. E. Peralta, 
 F. Ogliaro, M. J. Bearpark, J. J. Heyd, E. N. Brothers, K. N. Kudin, 
 V. N. Staroverov, T. A. Keith, R. Kobayashi, J. Normand, 
 K. Raghavachari, A. P. Rendell, J. C. Burant, S. S. Iyengar, 
 J. Tomasi, M. Cossi, J. M. Millam, M. Klene, C. Adamo, R. Cammi, 
 J. W. Ochterski, R. L. Martin, K. Morokuma, O. Farkas, 
 J. B. Foresman, and D. J. Fox, Gaussian, Inc., Wallingford CT, 2016.
 
 ******************************************
 Gaussian 16:  ES64L-G16RevA.03 25-Dec-2016
                 7-Feb-2019 
 ******************************************
 %nproc=24
 Will use up to   24 processors via shared memory.
 ------------------------------------------
 #p M062X/6-31G* em=gd3 force int=ultrafine
 ------------------------------------------
 1/10=7,30=1,38=1/1,3;
 2/12=2,17=6,18=5,40=1/2;
 3/5=1,6=6,7=1,11=2,25=1,30=1,71=1,74=-55,75=-5,124=31/1,2,3;
 4//1;
 5/5=2,38=5/2;
 6/7=2,8=2,9=2,10=2,28=1/1;
 7/29=1/1,2,3,16;
 1/10=7,30=1/3;
 99//99;
 Leave Link    1 at Thu Feb  7 23:01:15 2019, MaxMem=           0 cpu:               2.5 elap:               0.1
 (Enter /home/xinyan/g16/l101.exe)
 -----
 Title
 -----
 Symbolic Z-matrix:
 Charge =  0 Multiplicity = 1
 C                    -4.9514    0.2398   -0.30939 
 C                    -5.10379  -1.01863  -1.16906 
 C                    -3.75391  -1.44246  -1.76078 
 C                    -2.76464  -1.67402  -0.6228 
 C                    -2.56     -0.38232   0.2199 
 C                    -3.91707   0.03977   0.80268 
 H                    -3.85526  -2.34686  -2.37167 
 H                    -5.50283  -1.83724  -0.55591 
 H                    -5.82048  -0.84721  -1.97911 
 H                    -4.62422   1.0708   -0.95025 
 H                    -5.92031   0.52443   0.11449 
 H                    -3.14202  -2.4636    0.03332 
 H                    -2.27844   0.39501  -0.50655 
 H                    -4.25991  -0.7214    1.51493 
 H                    -3.76654   0.97467   1.35564 
 H                    -3.4008   -0.63281  -2.41415 
 N                    -1.4301   -2.1344   -1.07342 
 C                    -0.76309  -1.47295  -2.04747 
 C                    -0.73392  -2.95059  -0.24719 
 C                     0.58734  -1.58722  -2.21324 
 H                    -1.3583   -0.82333  -2.67615 
 C                     0.61845  -3.11205  -0.34757 
 H                    -1.30823  -3.42736   0.53995 
 C                     1.35219  -2.35322  -1.2901 
 H                     1.06284  -1.03528  -3.01331 
 H                     1.10758  -3.73314   0.38959 
 N                     2.6925   -2.34399  -1.29251 
 C                     3.44084  -2.90436  -0.15984 
 H                     3.31596  -3.99002  -0.11195 
 H                     3.06572  -2.45965   0.77255 
 C                     3.46281  -1.29871  -1.98405 
 H                     3.71143  -1.62357  -3.00166 
 H                     2.87879  -0.37547  -2.02477 
 N                    -1.43707  -0.45932   1.12884 
 S                    -1.46702  -1.41294   2.38824 
 O                    -2.55216  -2.41852   2.35728 
 O                    -0.10755  -1.97948   2.60417 
 C                    -0.91956   2.67383   0.08923 
 C                    -0.29448   1.98165  -0.95503 
 C                    -0.87744   1.96126  -2.22016 
 C                    -2.10246   2.5892   -2.45015 
 C                    -2.74295   3.24697  -1.40295 
 C                    -2.14795   3.28931  -0.1441 
 H                     0.62307   1.42897  -0.75942 
 H                    -0.37371   1.44736  -3.03597 
 H                    -2.55593   2.56622  -3.43666 
 H                    -3.70416   3.72681  -1.5616 
 H                    -2.64648   3.79874   0.67734 
 O                     0.25705   1.51778   1.87047 
 H                    -0.3414    0.78723   1.52588 
 C                     2.36395   0.21217   1.3638 
 O                     2.00089  -0.15802   0.2612 
 O                     2.13525  -0.46701   2.47804 
 H                     1.37702  -1.10024   2.35098 
 C                     3.18158   1.46131   1.59632 
 H                     2.69546   2.0058    2.41188 
 H                     4.17258   1.16091   1.96419 
 C                    -0.28864   2.73809   1.46375 
 H                    -1.03757   3.11074   2.18167 
 H                     0.53227   3.47121   1.45666 
 C                    -1.73239  -0.36671   3.81732 
 H                    -0.94866   0.3946    3.79857 
 H                    -2.71828   0.0936    3.72769 
 H                    -1.6672   -0.97469   4.72056 
 C                     3.29984   2.32719   0.34764 
 H                     3.68884   1.72433  -0.48176 
 H                     2.29668   2.6445    0.04078 
 C                     4.18868   3.54732   0.56903 
 H                     4.27977   4.14385  -0.34333 
 H                     3.78115   4.19385   1.35331 
 H                     5.19667   3.24859   0.87686 
 C                     4.88128  -2.48443  -0.43883 
 H                     5.47446  -2.43646   0.4766 
 H                     5.35677  -3.19566  -1.12177 
 C                     4.71097  -1.12162  -1.1143 
 H                     4.50513  -0.3593   -0.35791 
 H                     5.58249  -0.81164  -1.69452 
 
 ITRead=  0  0  0  0  0  0  0  0  0  0  0  0  0  0  0  0  0  0  0  0
 ITRead=  0  0  0  0  0  0  0  0  0  0  0  0  0  0  0  0  0  0  0  0
 ITRead=  0  0  0  0  0  0  0  0  0  0  0  0  0  0  0  0  0  0  0  0
 ITRead=  0  0  0  0  0  0  0  0  0  0  0  0  0  0  0  0  0
 MicOpt= -1 -1 -1 -1 -1 -1 -1 -1 -1 -1 -1 -1 -1 -1 -1 -1 -1 -1 -1 -1
 MicOpt= -1 -1 -1 -1 -1 -1 -1 -1 -1 -1 -1 -1 -1 -1 -1 -1 -1 -1 -1 -1
 MicOpt= -1 -1 -1 -1 -1 -1 -1 -1 -1 -1 -1 -1 -1 -1 -1 -1 -1 -1 -1 -1
 MicOpt= -1 -1 -1 -1 -1 -1 -1 -1 -1 -1 -1 -1 -1 -1 -1 -1 -1
 NAtoms=     77 NQM=       77 NQMF=       0 NMMI=      0 NMMIF=      0
                NMic=       0 NMicF=      0.
                    Isotopes and Nuclear Properties:
 (Nuclear quadrupole moments (NQMom) in fm**2, nuclear magnetic moments (NMagM)
  in nuclear magnetons)

  Atom         1           2           3           4           5           6           7           8           9          10
 IAtWgt=          12          12          12          12          12          12           1           1           1           1
 AtmWgt=  12.0000000  12.0000000  12.0000000  12.0000000  12.0000000  12.0000000   1.0078250   1.0078250   1.0078250   1.0078250
 NucSpn=           0           0           0           0           0           0           1           1           1           1
 AtZEff=  -0.0000000  -0.0000000  -0.0000000  -0.0000000  -0.0000000  -0.0000000  -0.0000000  -0.0000000  -0.0000000  -0.0000000
 NQMom=    0.0000000   0.0000000   0.0000000   0.0000000   0.0000000   0.0000000   0.0000000   0.0000000   0.0000000   0.0000000
 NMagM=    0.0000000   0.0000000   0.0000000   0.0000000   0.0000000   0.0000000   2.7928460   2.7928460   2.7928460   2.7928460
 AtZNuc=   6.0000000   6.0000000   6.0000000   6.0000000   6.0000000   6.0000000   1.0000000   1.0000000   1.0000000   1.0000000

  Atom        11          12          13          14          15          16          17          18          19          20
 IAtWgt=           1           1           1           1           1           1          14          12          12          12
 AtmWgt=   1.0078250   1.0078250   1.0078250   1.0078250   1.0078250   1.0078250  14.0030740  12.0000000  12.0000000  12.0000000
 NucSpn=           1           1           1           1           1           1           2           0           0           0
 AtZEff=  -0.0000000  -0.0000000  -0.0000000  -0.0000000  -0.0000000  -0.0000000  -0.0000000  -0.0000000  -0.0000000  -0.0000000
 NQMom=    0.0000000   0.0000000   0.0000000   0.0000000   0.0000000   0.0000000   2.0440000   0.0000000   0.0000000   0.0000000
 NMagM=    2.7928460   2.7928460   2.7928460   2.7928460   2.7928460   2.7928460   0.4037610   0.0000000   0.0000000   0.0000000
 AtZNuc=   1.0000000   1.0000000   1.0000000   1.0000000   1.0000000   1.0000000   7.0000000   6.0000000   6.0000000   6.0000000

  Atom        21          22          23          24          25          26          27          28          29          30
 IAtWgt=           1          12           1          12           1           1          14          12           1           1
 AtmWgt=   1.0078250  12.0000000   1.0078250  12.0000000   1.0078250   1.0078250  14.0030740  12.0000000   1.0078250   1.0078250
 NucSpn=           1           0           1           0           1           1           2           0           1           1
 AtZEff=  -0.0000000  -0.0000000  -0.0000000  -0.0000000  -0.0000000  -0.0000000  -0.0000000  -0.0000000  -0.0000000  -0.0000000
 NQMom=    0.0000000   0.0000000   0.0000000   0.0000000   0.0000000   0.0000000   2.0440000   0.0000000   0.0000000   0.0000000
 NMagM=    2.7928460   0.0000000   2.7928460   0.0000000   2.7928460   2.7928460   0.4037610   0.0000000   2.7928460   2.7928460
 AtZNuc=   1.0000000   6.0000000   1.0000000   6.0000000   1.0000000   1.0000000   7.0000000   6.0000000   1.0000000   1.0000000

  Atom        31          32          33          34          35          36          37          38          39          40
 IAtWgt=          12           1           1          14          32          16          16          12          12          12
 AtmWgt=  12.0000000   1.0078250   1.0078250  14.0030740  31.9720718  15.9949146  15.9949146  12.0000000  12.0000000  12.0000000
 NucSpn=           0           1           1           2           0           0           0           0           0           0
 AtZEff=  -0.0000000  -0.0000000  -0.0000000  -0.0000000  -0.0000000  -0.0000000  -0.0000000  -0.0000000  -0.0000000  -0.0000000
 NQMom=    0.0000000   0.0000000   0.0000000   2.0440000   0.0000000   0.0000000   0.0000000   0.0000000   0.0000000   0.0000000
 NMagM=    0.0000000   2.7928460   2.7928460   0.4037610   0.0000000   0.0000000   0.0000000   0.0000000   0.0000000   0.0000000
 AtZNuc=   6.0000000   1.0000000   1.0000000   7.0000000  16.0000000   8.0000000   8.0000000   6.0000000   6.0000000   6.0000000

  Atom        41          42          43          44          45          46          47          48          49          50
 IAtWgt=          12          12          12           1           1           1           1           1          16           1
 AtmWgt=  12.0000000  12.0000000  12.0000000   1.0078250   1.0078250   1.0078250   1.0078250   1.0078250  15.9949146   1.0078250
 NucSpn=           0           0           0           1           1           1           1           1           0           1
 AtZEff=  -0.0000000  -0.0000000  -0.0000000  -0.0000000  -0.0000000  -0.0000000  -0.0000000  -0.0000000  -0.0000000  -0.0000000
 NQMom=    0.0000000   0.0000000   0.0000000   0.0000000   0.0000000   0.0000000   0.0000000   0.0000000   0.0000000   0.0000000
 NMagM=    0.0000000   0.0000000   0.0000000   2.7928460   2.7928460   2.7928460   2.7928460   2.7928460   0.0000000   2.7928460
 AtZNuc=   6.0000000   6.0000000   6.0000000   1.0000000   1.0000000   1.0000000   1.0000000   1.0000000   8.0000000   1.0000000

  Atom        51          52          53          54          55          56          57          58          59          60
 IAtWgt=          12          16          16           1          12           1           1          12           1           1
 AtmWgt=  12.0000000  15.9949146  15.9949146   1.0078250  12.0000000   1.0078250   1.0078250  12.0000000   1.0078250   1.0078250
 NucSpn=           0           0           0           1           0           1           1           0           1           1
 AtZEff=  -0.0000000  -0.0000000  -0.0000000  -0.0000000  -0.0000000  -0.0000000  -0.0000000  -0.0000000  -0.0000000  -0.0000000
 NQMom=    0.0000000   0.0000000   0.0000000   0.0000000   0.0000000   0.0000000   0.0000000   0.0000000   0.0000000   0.0000000
 NMagM=    0.0000000   0.0000000   0.0000000   2.7928460   0.0000000   2.7928460   2.7928460   0.0000000   2.7928460   2.7928460
 AtZNuc=   6.0000000   8.0000000   8.0000000   1.0000000   6.0000000   1.0000000   1.0000000   6.0000000   1.0000000   1.0000000

  Atom        61          62          63          64          65          66          67          68          69          70
 IAtWgt=          12           1           1           1          12           1           1          12           1           1
 AtmWgt=  12.0000000   1.0078250   1.0078250   1.0078250  12.0000000   1.0078250   1.0078250  12.0000000   1.0078250   1.0078250
 NucSpn=           0           1           1           1           0           1           1           0           1           1
 AtZEff=  -0.0000000  -0.0000000  -0.0000000  -0.0000000  -0.0000000  -0.0000000  -0.0000000  -0.0000000  -0.0000000  -0.0000000
 NQMom=    0.0000000   0.0000000   0.0000000   0.0000000   0.0000000   0.0000000   0.0000000   0.0000000   0.0000000   0.0000000
 NMagM=    0.0000000   2.7928460   2.7928460   2.7928460   0.0000000   2.7928460   2.7928460   0.0000000   2.7928460   2.7928460
 AtZNuc=   6.0000000   1.0000000   1.0000000   1.0000000   6.0000000   1.0000000   1.0000000   6.0000000   1.0000000   1.0000000

  Atom        71          72          73          74          75          76          77
 IAtWgt=           1          12           1           1          12           1           1
 AtmWgt=   1.0078250  12.0000000   1.0078250   1.0078250  12.0000000   1.0078250   1.0078250
 NucSpn=           1           0           1           1           0           1           1
 AtZEff=  -0.0000000  -0.0000000  -0.0000000  -0.0000000  -0.0000000  -0.0000000  -0.0000000
 NQMom=    0.0000000   0.0000000   0.0000000   0.0000000   0.0000000   0.0000000   0.0000000
 NMagM=    2.7928460   0.0000000   2.7928460   2.7928460   0.0000000   2.7928460   2.7928460
 AtZNuc=   1.0000000   6.0000000   1.0000000   1.0000000   6.0000000   1.0000000   1.0000000
 Leave Link  101 at Thu Feb  7 23:01:15 2019, MaxMem=   104857600 cpu:               5.8 elap:               0.3
 (Enter /home/xinyan/g16/l103.exe)

 GradGradGradGradGradGradGradGradGradGradGradGradGradGradGradGradGradGrad
 Berny optimization.
 Initialization pass.
 Trust Radius=3.00D-01 FncErr=1.00D-07 GrdErr=1.00D-07 EigMax=2.50D+02 EigMin=1.00D-04
 Number of steps in this run=      2 maximum allowed number of steps=      2.
 GradGradGradGradGradGradGradGradGradGradGradGradGradGradGradGradGradGrad

 Leave Link  103 at Thu Feb  7 23:01:15 2019, MaxMem=   104857600 cpu:               1.6 elap:               0.1
 (Enter /home/xinyan/g16/l202.exe)
 Stoichiometry    C27H41N3O5S
 Framework group  C1[X(C27H41N3O5S)]
 Deg. of freedom   225
 Full point group                 C1      NOp   1
 Largest Abelian subgroup         C1      NOp   1
 Largest concise Abelian subgroup C1      NOp   1
                         Standard orientation:                         
 ---------------------------------------------------------------------
 Center     Atomic      Atomic             Coordinates (Angstroms)
 Number     Number       Type             X           Y           Z
 ---------------------------------------------------------------------
      1          6           0       -4.869480    0.177248   -0.448054
      2          6           0       -4.952639   -1.114831   -1.266295
      3          6           0       -3.582916   -1.479467   -1.851821
      4          6           0       -2.577651   -1.617289   -0.712645
      5          6           0       -2.444304   -0.289566    0.087279
      6          6           0       -3.821139    0.072635    0.663966
      7          1           0       -3.634498   -2.407358   -2.432988
      8          1           0       -5.301677   -1.934812   -0.625116
      9          1           0       -5.681072   -1.010866   -2.077336
     10          1           0       -4.593000    1.004586   -1.116917
     11          1           0       -5.851512    0.419405   -0.027995
     12          1           0       -2.906568   -2.405682   -0.029567
     13          1           0       -2.210613    0.478854   -0.665161
     14          1           0       -4.116991   -0.683626    1.402044
     15          1           0       -3.722431    1.031914    1.185983
     16          1           0       -3.279370   -0.672349   -2.532654
     17          7           0       -1.220606   -2.014738   -1.155893
     18          6           0       -0.596394   -1.347835   -2.154287
     19          6           0       -0.475566   -2.762736   -0.308011
     20          6           0        0.757727   -1.389853   -2.323958
     21          1           0       -1.230314   -0.753915   -2.799984
     22          6           0        0.883451   -2.849629   -0.410833
     23          1           0       -1.018548   -3.246058    0.497160
     24          6           0        1.568811   -2.080721   -1.381205
     25          1           0        1.197698   -0.837597   -3.143890
     26          1           0        1.410243   -3.417668    0.342977
     27          7           0        2.906361   -1.994834   -1.391480
     28          6           0        3.689955   -2.474724   -0.245769
     29          1           0        3.627801   -3.563652   -0.162589
     30          1           0        3.293477   -2.022479    0.674075
     31          6           0        3.612741   -0.929930   -2.120332
     32          1           0        3.875722   -1.272567   -3.128457
     33          1           0        2.976523   -0.043437   -2.187162
     34          7           0       -1.315349   -0.272871    0.991853
     35         16           0       -1.285693   -1.185658    2.281162
     36          8           0       -2.311414   -2.252205    2.288405
     37          8           0        0.104877   -1.666181    2.507358
     38          6           0       -0.982558    2.849727   -0.150016
     39          6           0       -0.322752    2.161265   -1.175195
     40          6           0       -0.908398    2.066861   -2.435718
     41          6           0       -2.168320    2.615899   -2.678683
     42          6           0       -2.841524    3.269238   -1.649382
     43          6           0       -2.245142    3.386031   -0.395903
     44          1           0        0.625757    1.668611   -0.967253
     45          1           0       -0.379106    1.556689   -3.237564
     46          1           0       -2.623480    2.535284   -3.661381
     47          1           0       -3.829298    3.687896   -1.817814
     48          1           0       -2.768965    3.892222    0.411683
     49          8           0        0.265271    1.820820    1.660495
     50          1           0       -0.291555    1.046497    1.342756
     51          6           0        2.441713    0.622393    1.183807
     52          8           0        2.096307    0.196763    0.095638
     53          8           0        2.256637   -0.032595    2.320407
     54          1           0        1.535538   -0.711964    2.217884
     55          6           0        3.187152    1.923135    1.371765
     56          1           0        2.673683    2.464831    2.172287
     57          1           0        4.195160    1.691961    1.743419
     58          6           0       -0.351133    2.994170    1.218170
     59          1           0       -1.117482    3.346208    1.928066
     60          1           0        0.426295    3.772489    1.183075
     61          6           0       -1.605247   -0.110939    3.677640
     62          1           0       -0.866600    0.693006    3.630202
     63          1           0       -2.616275    0.289037    3.578953
     64          1           0       -1.501813   -0.684834    4.599419
     65          6           0        3.250738    2.753773    0.095469
     66          1           0        3.670547    2.147826   -0.716476
     67          1           0        2.229851    3.003085   -0.215677
     68          6           0        4.068892    4.029287    0.272825
     69          1           0        4.122101    4.600413   -0.658588
     70          1           0        3.627905    4.676298    1.038386
     71          1           0        5.093538    3.798822    0.584322
     72          6           0        5.102833   -1.982181   -0.546138
     73          1           0        5.695765   -1.870915    0.363931
     74          1           0        5.615769   -2.686603   -1.208734
     75          6           0        4.851980   -0.653783   -1.263736
     76          1           0        4.605594    0.119422   -0.530881
     77          1           0        5.702045   -0.313217   -1.858457
 ---------------------------------------------------------------------
 Rotational constants (GHZ):           0.1452945           0.0972097           0.0867798
 Leave Link  202 at Thu Feb  7 23:01:15 2019, MaxMem=   104857600 cpu:               2.5 elap:               0.1
 (Enter /home/xinyan/g16/l301.exe)
 Standard basis: 6-31G(d) (6D, 7F)
 Ernie: Thresh=  0.10000D-02 Tol=  0.10000D-05 Strict=F.
 There are   626 symmetry adapted cartesian basis functions of A   symmetry.
 There are   626 symmetry adapted basis functions of A   symmetry.
   626 basis functions,  1196 primitive gaussians,   626 cartesian basis functions
   140 alpha electrons      140 beta electrons
       nuclear repulsion energy      4900.4311538608 Hartrees.
 IExCor= 4336 DFT=T Ex+Corr=M062X ExCW=0 ScaHFX=  0.540000
 ScaDFX=  1.000000  1.000000  1.000000  1.000000 ScalE2=  1.000000  1.000000
 IRadAn=      5 IRanWt=     -1 IRanGd=            0 ICorTp=0 IEmpDi=131
 NAtoms=   77 NActive=   77 NUniq=   77 SFac= 1.00D+00 NAtFMM=   60 NAOKFM=T Big=T
 Integral buffers will be    131072 words long.
 Raffenetti 2 integral format.
 Two-electron integral symmetry is turned on.
 R6Disp:  Grimme-D3 Dispersion energy=       -0.0106639105 Hartrees.
 Nuclear repulsion after empirical dispersion term =     4900.4204899503 Hartrees.
 Leave Link  301 at Thu Feb  7 23:01:15 2019, MaxMem=   104857600 cpu:               3.0 elap:               0.1
 (Enter /home/xinyan/g16/l302.exe)
 NPDir=0 NMtPBC=     1 NCelOv=     1 NCel=       1 NClECP=     1 NCelD=      1
         NCelK=      1 NCelE2=     1 NClLst=     1 CellRange=     0.0.
 One-electron integrals computed using PRISM.
 One-electron integral symmetry used in STVInt
 PrsmSu:  requested number of processors reduced to:  23 ShMem   1 Linda.
 NBasis=   626 RedAO= T EigKep=  4.35D-04  NBF=   626
 NBsUse=   626 1.00D-06 EigRej= -1.00D+00 NBFU=   626
 Precomputing XC quadrature grid using
 IXCGrd= 4 IRadAn=           5 IRanWt=          -1 IRanGd=           0 AccXCQ= 0.00D+00.
 Generated NRdTot=       0 NPtTot=           0 NUsed=           0 NTot=          32
 NSgBfM=   615   614   615   615   615 MxSgAt=    77 MxSgA2=    77.
 Leave Link  302 at Thu Feb  7 23:01:19 2019, MaxMem=   104857600 cpu:              83.1 elap:               3.6
 (Enter /home/xinyan/g16/l303.exe)
 DipDrv:  MaxL=1.
 Leave Link  303 at Thu Feb  7 23:01:19 2019, MaxMem=   104857600 cpu:               5.7 elap:               0.3
 (Enter /home/xinyan/g16/l401.exe)
 ExpMin= 1.17D-01 ExpMax= 2.19D+04 ExpMxC= 3.30D+03 IAcc=3 IRadAn=         5 AccDes= 0.00D+00
 Harris functional with IExCor= 1009 and IRadAn=       5 diagonalized for initial guess.
 HarFok:  IExCor= 1009 AccDes= 0.00D+00 IRadAn=         5 IDoV= 1 UseB2=F ITyADJ=14
 ICtDFT=  3500011 ScaDFX=  1.000000  1.000000  1.000000  1.000000
 FoFCou: FMM=F IPFlag=           0 FMFlag=      100000 FMFlg1=        2001
         NFxFlg=           0 DoJE=T BraDBF=F KetDBF=T FulRan=T
         wScrn=  0.000000 ICntrl=       500 IOpCl=  0 I1Cent=   200000004 NGrid=           0
         NMat0=    1 NMatS0=      1 NMatT0=    0 NMatD0=    1 NMtDS0=    0 NMtDT0=    0
 Petite list used in FoFCou.
 Harris En= -1990.54778596266    
 JPrj=0 DoOrth=F DoCkMO=F.
 Leave Link  401 at Thu Feb  7 23:01:24 2019, MaxMem=   104857600 cpu:              97.4 elap:               4.1
 (Enter /home/xinyan/g16/l502.exe)
 Integral symmetry usage will be decided dynamically.
 Closed shell SCF:
 Using DIIS extrapolation, IDIIS=  1040.
 NGot=   104857600 LenX=   104051656 LenY=   103659154
 Requested convergence on RMS density matrix=1.00D-08 within 128 cycles.
 Requested convergence on MAX density matrix=1.00D-06.
 Requested convergence on             energy=1.00D-06.
 No special actions if energy rises.
 Fock matrices will be formed incrementally for  20 cycles.
 Integral accuracy reduced to 1.0D-05 until final iterations.

 Cycle   1  Pass 0  IDiag  1:
 FoFJK:  IHMeth= 1 ICntrl=       0 DoSepK=F KAlg= 0 I1Cent=           0 FoldK=F
 IRaf= 990000000 NMat=       1 IRICut=       1 DoRegI=T DoRafI=F ISym2E= 0 IDoP0=0 IntGTp=1.
 FoFCou: FMM=T IPFlag=           0 FMFlag=      100000 FMFlg1=        2001
         NFxFlg=           0 DoJE=F BraDBF=F KetDBF=F FulRan=T
         wScrn=  0.000000 ICntrl=         0 IOpCl=  0 I1Cent=           0 NGrid=           0
         NMat0=    1 NMatS0=      1 NMatT0=    0 NMatD0=    1 NMtDS0=    0 NMtDT0=    0
 Symmetry not used in FoFCou.
 FMM levels:  10  Number of levels for PrismC:   9
 E= -1990.34830679915    
 DIIS: error= 2.82D-02 at cycle   1 NSaved=   1.
 NSaved= 1 IEnMin= 1 EnMin= -1990.34830679915     IErMin= 1 ErrMin= 2.82D-02
 ErrMax= 2.82D-02  0.00D+00 EMaxC= 1.00D-01 BMatC= 1.22D+00 BMatP= 1.22D+00
 IDIUse=3 WtCom= 7.18D-01 WtEn= 2.82D-01
 Coeff-Com:  0.100D+01
 Coeff-En:   0.100D+01
 Coeff:      0.100D+01
 Gap=     0.371 Goal=   None    Shift=    0.000
 GapD=    0.371 DampG=1.000 DampE=0.500 DampFc=0.5000 IDamp=-1.
 Damping current iteration by 5.00D-01
 RMSDP=3.21D-03 MaxDP=3.20D-01              OVMax= 1.37D-01

 Cycle   2  Pass 0  IDiag  1:
 RMSU=  1.59D-03    CP:  9.87D-01
 E= -1990.86127308080     Delta-E=       -0.512966281646 Rises=F Damp=T
 DIIS: error= 8.51D-03 at cycle   2 NSaved=   2.
 NSaved= 2 IEnMin= 2 EnMin= -1990.86127308080     IErMin= 2 ErrMin= 8.51D-03
 ErrMax= 8.51D-03  0.00D+00 EMaxC= 1.00D-01 BMatC= 8.82D-02 BMatP= 1.22D+00
 IDIUse=3 WtCom= 9.15D-01 WtEn= 8.51D-02
 Coeff-Com: -0.441D-01 0.104D+01
 Coeff-En:   0.000D+00 0.100D+01
 Coeff:     -0.404D-01 0.104D+01
 Gap=     0.253 Goal=   None    Shift=    0.000
 RMSDP=7.77D-04 MaxDP=7.51D-02 DE=-5.13D-01 OVMax= 9.35D-02

 Cycle   3  Pass 0  IDiag  1:
 RMSU=  7.72D-04    CP:  9.81D-01  1.01D+00
 E= -1991.35623256200     Delta-E=       -0.494959481205 Rises=F Damp=F
 DIIS: error= 7.27D-03 at cycle   3 NSaved=   3.
 NSaved= 3 IEnMin= 3 EnMin= -1991.35623256200     IErMin= 3 ErrMin= 7.27D-03
 ErrMax= 7.27D-03  0.00D+00 EMaxC= 1.00D-01 BMatC= 3.72D-02 BMatP= 8.82D-02
 IDIUse=3 WtCom= 9.27D-01 WtEn= 7.27D-02
 Coeff-Com: -0.715D-01 0.408D+00 0.664D+00
 Coeff-En:   0.000D+00 0.000D+00 0.100D+01
 Coeff:     -0.663D-01 0.378D+00 0.688D+00
 Gap=     0.252 Goal=   None    Shift=    0.000
 RMSDP=4.25D-04 MaxDP=4.05D-02 DE=-4.95D-01 OVMax= 3.97D-02

 Cycle   4  Pass 0  IDiag  1:
 RMSU=  2.89D-04    CP:  9.83D-01  1.09D+00  6.33D-01
 E= -1991.37757468246     Delta-E=       -0.021342120456 Rises=F Damp=F
 DIIS: error= 3.92D-03 at cycle   4 NSaved=   4.
 NSaved= 4 IEnMin= 4 EnMin= -1991.37757468246     IErMin= 4 ErrMin= 3.92D-03
 ErrMax= 3.92D-03  0.00D+00 EMaxC= 1.00D-01 BMatC= 1.08D-02 BMatP= 3.72D-02
 IDIUse=3 WtCom= 9.61D-01 WtEn= 3.92D-02
 Coeff-Com: -0.262D-01 0.864D-01 0.378D+00 0.562D+00
 Coeff-En:   0.000D+00 0.000D+00 0.232D+00 0.768D+00
 Coeff:     -0.252D-01 0.830D-01 0.372D+00 0.570D+00
 Gap=     0.241 Goal=   None    Shift=    0.000
 RMSDP=1.81D-04 MaxDP=1.24D-02 DE=-2.13D-02 OVMax= 2.13D-02

 Cycle   5  Pass 0  IDiag  1:
 RMSU=  8.32D-05    CP:  9.82D-01  1.08D+00  7.49D-01  5.42D-01
 E= -1991.38623834184     Delta-E=       -0.008663659379 Rises=F Damp=F
 DIIS: error= 8.22D-04 at cycle   5 NSaved=   5.
 NSaved= 5 IEnMin= 5 EnMin= -1991.38623834184     IErMin= 5 ErrMin= 8.22D-04
 ErrMax= 8.22D-04  0.00D+00 EMaxC= 1.00D-01 BMatC= 5.80D-04 BMatP= 1.08D-02
 IDIUse=3 WtCom= 9.92D-01 WtEn= 8.22D-03
 Coeff-Com: -0.813D-02 0.194D-01 0.146D+00 0.287D+00 0.556D+00
 Coeff-En:   0.000D+00 0.000D+00 0.000D+00 0.000D+00 0.100D+01
 Coeff:     -0.806D-02 0.193D-01 0.145D+00 0.285D+00 0.560D+00
 Gap=     0.243 Goal=   None    Shift=    0.000
 RMSDP=4.82D-05 MaxDP=3.71D-03 DE=-8.66D-03 OVMax= 6.03D-03

 Cycle   6  Pass 0  IDiag  1:
 RMSU=  2.41D-05    CP:  9.82D-01  1.08D+00  7.52D-01  6.14D-01  5.68D-01
 E= -1991.38673590223     Delta-E=       -0.000497560392 Rises=F Damp=F
 DIIS: error= 1.96D-04 at cycle   6 NSaved=   6.
 NSaved= 6 IEnMin= 6 EnMin= -1991.38673590223     IErMin= 6 ErrMin= 1.96D-04
 ErrMax= 1.96D-04  0.00D+00 EMaxC= 1.00D-01 BMatC= 3.83D-05 BMatP= 5.80D-04
 IDIUse=3 WtCom= 9.98D-01 WtEn= 1.96D-03
 Coeff-Com: -0.119D-02 0.106D-02 0.310D-01 0.769D-01 0.261D+00 0.631D+00
 Coeff-En:   0.000D+00 0.000D+00 0.000D+00 0.000D+00 0.000D+00 0.100D+01
 Coeff:     -0.119D-02 0.106D-02 0.310D-01 0.768D-01 0.260D+00 0.632D+00
 Gap=     0.243 Goal=   None    Shift=    0.000
 RMSDP=1.23D-05 MaxDP=6.83D-04 DE=-4.98D-04 OVMax= 1.97D-03

 Cycle   7  Pass 0  IDiag  1:
 RMSU=  7.90D-06    CP:  9.82D-01  1.08D+00  7.55D-01  6.14D-01  6.41D-01
                    CP:  7.15D-01
 E= -1991.38677378226     Delta-E=       -0.000037880026 Rises=F Damp=F
 DIIS: error= 4.03D-05 at cycle   7 NSaved=   7.
 NSaved= 7 IEnMin= 7 EnMin= -1991.38677378226     IErMin= 7 ErrMin= 4.03D-05
 ErrMax= 4.03D-05  0.00D+00 EMaxC= 1.00D-01 BMatC= 2.94D-06 BMatP= 3.83D-05
 IDIUse=1 WtCom= 1.00D+00 WtEn= 0.00D+00
 Coeff-Com:  0.291D-03-0.145D-02-0.656D-03 0.607D-02 0.629D-01 0.268D+00
 Coeff-Com:  0.664D+00
 Coeff:      0.291D-03-0.145D-02-0.656D-03 0.607D-02 0.629D-01 0.268D+00
 Coeff:      0.664D+00
 Gap=     0.243 Goal=   None    Shift=    0.000
 RMSDP=4.15D-06 MaxDP=2.32D-04 DE=-3.79D-05 OVMax= 3.62D-04

 Initial convergence to 1.0D-05 achieved.  Increase integral accuracy.
 Cycle   8  Pass 1  IDiag  1:
 E= -1991.38676300896     Delta-E=        0.000010773300 Rises=F Damp=F
 DIIS: error= 1.38D-04 at cycle   1 NSaved=   1.
 NSaved= 1 IEnMin= 1 EnMin= -1991.38676300896     IErMin= 1 ErrMin= 1.38D-04
 ErrMax= 1.38D-04  0.00D+00 EMaxC= 1.00D-01 BMatC= 1.19D-05 BMatP= 1.19D-05
 IDIUse=3 WtCom= 9.99D-01 WtEn= 1.38D-03
 Coeff-Com:  0.100D+01
 Coeff-En:   0.100D+01
 Coeff:      0.100D+01
 Gap=     0.243 Goal=   None    Shift=    0.000
 RMSDP=4.15D-06 MaxDP=2.32D-04 DE= 1.08D-05 OVMax= 5.87D-04

 Cycle   9  Pass 1  IDiag  1:
 RMSU=  6.49D-05    CP:  1.00D+00
 E= -1991.38677390900     Delta-E=       -0.000010900042 Rises=F Damp=F
 DIIS: error= 2.62D-05 at cycle   2 NSaved=   2.
 NSaved= 2 IEnMin= 2 EnMin= -1991.38677390900     IErMin= 2 ErrMin= 2.62D-05
 ErrMax= 2.62D-05  0.00D+00 EMaxC= 1.00D-01 BMatC= 9.09D-07 BMatP= 1.19D-05
 IDIUse=1 WtCom= 1.00D+00 WtEn= 0.00D+00
 Coeff-Com:  0.856D-01 0.914D+00
 Coeff:      0.856D-01 0.914D+00
 Gap=     0.243 Goal=   None    Shift=    0.000
 RMSDP=3.97D-06 MaxDP=2.55D-04 DE=-1.09D-05 OVMax= 4.52D-04

 Cycle  10  Pass 1  IDiag  1:
 RMSU=  3.55D-06    CP:  1.00D+00  1.03D+00
 E= -1991.38677343980     Delta-E=        0.000000469200 Rises=F Damp=F
 DIIS: error= 3.70D-05 at cycle   3 NSaved=   3.
 NSaved= 3 IEnMin= 2 EnMin= -1991.38677390900     IErMin= 2 ErrMin= 2.62D-05
 ErrMax= 3.70D-05  0.00D+00 EMaxC= 1.00D-01 BMatC= 1.45D-06 BMatP= 9.09D-07
 IDIUse=1 WtCom= 1.00D+00 WtEn= 0.00D+00
 Coeff-Com: -0.160D-01 0.565D+00 0.451D+00
 Coeff:     -0.160D-01 0.565D+00 0.451D+00
 Gap=     0.243 Goal=   None    Shift=    0.000
 RMSDP=1.98D-06 MaxDP=1.57D-04 DE= 4.69D-07 OVMax= 3.26D-04

 Cycle  11  Pass 1  IDiag  1:
 RMSU=  6.28D-07    CP:  1.00D+00  1.03D+00  4.80D-01
 E= -1991.38677470327     Delta-E=       -0.000001263471 Rises=F Damp=F
 DIIS: error= 4.05D-06 at cycle   4 NSaved=   4.
 NSaved= 4 IEnMin= 4 EnMin= -1991.38677470327     IErMin= 4 ErrMin= 4.05D-06
 ErrMax= 4.05D-06  0.00D+00 EMaxC= 1.00D-01 BMatC= 1.14D-08 BMatP= 9.09D-07
 IDIUse=1 WtCom= 1.00D+00 WtEn= 0.00D+00
 Coeff-Com: -0.877D-02 0.250D+00 0.216D+00 0.543D+00
 Coeff:     -0.877D-02 0.250D+00 0.216D+00 0.543D+00
 Gap=     0.243 Goal=   None    Shift=    0.000
 RMSDP=2.20D-07 MaxDP=1.14D-05 DE=-1.26D-06 OVMax= 2.07D-05

 Cycle  12  Pass 1  IDiag  1:
 RMSU=  2.00D-07    CP:  1.00D+00  1.03D+00  4.97D-01  8.92D-01
 E= -1991.38677471361     Delta-E=       -0.000000010337 Rises=F Damp=F
 DIIS: error= 1.28D-06 at cycle   5 NSaved=   5.
 NSaved= 5 IEnMin= 5 EnMin= -1991.38677471361     IErMin= 5 ErrMin= 1.28D-06
 ErrMax= 1.28D-06  0.00D+00 EMaxC= 1.00D-01 BMatC= 9.27D-10 BMatP= 1.14D-08
 IDIUse=1 WtCom= 1.00D+00 WtEn= 0.00D+00
 Coeff-Com: -0.399D-03-0.812D-02 0.485D-02 0.185D+00 0.819D+00
 Coeff:     -0.399D-03-0.812D-02 0.485D-02 0.185D+00 0.819D+00
 Gap=     0.243 Goal=   None    Shift=    0.000
 RMSDP=9.39D-08 MaxDP=3.95D-06 DE=-1.03D-08 OVMax= 1.63D-05

 Cycle  13  Pass 1  IDiag  1:
 RMSU=  7.18D-08    CP:  1.00D+00  1.03D+00  5.01D-01  9.79D-01  9.16D-01
 E= -1991.38677471449     Delta-E=       -0.000000000886 Rises=F Damp=F
 DIIS: error= 5.55D-07 at cycle   6 NSaved=   6.
 NSaved= 6 IEnMin= 6 EnMin= -1991.38677471449     IErMin= 6 ErrMin= 5.55D-07
 ErrMax= 5.55D-07  0.00D+00 EMaxC= 1.00D-01 BMatC= 3.27D-10 BMatP= 9.27D-10
 IDIUse=1 WtCom= 1.00D+00 WtEn= 0.00D+00
 Coeff-Com:  0.107D-02-0.409D-01-0.271D-01 0.178D-01 0.457D+00 0.592D+00
 Coeff:      0.107D-02-0.409D-01-0.271D-01 0.178D-01 0.457D+00 0.592D+00
 Gap=     0.243 Goal=   None    Shift=    0.000
 RMSDP=3.78D-08 MaxDP=3.18D-06 DE=-8.86D-10 OVMax= 4.93D-06

 Cycle  14  Pass 1  IDiag  1:
 RMSU=  2.67D-08    CP:  1.00D+00  1.03D+00  5.04D-01  9.95D-01  1.01D+00
                    CP:  8.17D-01
 E= -1991.38677471493     Delta-E=       -0.000000000437 Rises=F Damp=F
 DIIS: error= 2.43D-07 at cycle   7 NSaved=   7.
 NSaved= 7 IEnMin= 7 EnMin= -1991.38677471493     IErMin= 7 ErrMin= 2.43D-07
 ErrMax= 2.43D-07  0.00D+00 EMaxC= 1.00D-01 BMatC= 2.17D-11 BMatP= 3.27D-10
 IDIUse=1 WtCom= 1.00D+00 WtEn= 0.00D+00
 Coeff-Com:  0.484D-03-0.163D-01-0.110D-01-0.146D-01 0.106D+00 0.239D+00
 Coeff-Com:  0.696D+00
 Coeff:      0.484D-03-0.163D-01-0.110D-01-0.146D-01 0.106D+00 0.239D+00
 Coeff:      0.696D+00
 Gap=     0.243 Goal=   None    Shift=    0.000
 RMSDP=1.22D-08 MaxDP=8.03D-07 DE=-4.37D-10 OVMax= 1.82D-06

 Cycle  15  Pass 1  IDiag  1:
 RMSU=  9.05D-09    CP:  1.00D+00  1.03D+00  5.05D-01  9.99D-01  1.02D+00
                    CP:  9.02D-01  1.07D+00
 E= -1991.38677471493     Delta-E=       -0.000000000003 Rises=F Damp=F
 DIIS: error= 4.81D-08 at cycle   8 NSaved=   8.
 NSaved= 8 IEnMin= 8 EnMin= -1991.38677471493     IErMin= 8 ErrMin= 4.81D-08
 ErrMax= 4.81D-08  0.00D+00 EMaxC= 1.00D-01 BMatC= 3.32D-12 BMatP= 2.17D-11
 IDIUse=1 WtCom= 1.00D+00 WtEn= 0.00D+00
 Coeff-Com: -0.413D-04 0.242D-02 0.197D-02-0.107D-01-0.540D-01-0.288D-01
 Coeff-Com:  0.277D+00 0.812D+00
 Coeff:     -0.413D-04 0.242D-02 0.197D-02-0.107D-01-0.540D-01-0.288D-01
 Coeff:      0.277D+00 0.812D+00
 Gap=     0.243 Goal=   None    Shift=    0.000
 RMSDP=5.42D-09 MaxDP=3.81D-07 DE=-2.73D-12 OVMax= 8.35D-07

 SCF Done:  E(RM062X) =  -1991.38677471     A.U. after   15 cycles
            NFock= 15  Conv=0.54D-08     -V/T= 2.0075
 KE= 1.976481557974D+03 PE=-1.445338743417D+04 EE= 5.585098611532D+03
 Leave Link  502 at Thu Feb  7 23:04:00 2019, MaxMem=   104857600 cpu:            3741.0 elap:             156.2
 (Enter /home/xinyan/g16/l601.exe)
 Copying SCF densities to generalized density rwf, IOpCl= 0 IROHF=0.

 **********************************************************************

            Population analysis using the SCF density.

 **********************************************************************

 Orbital symmetries:
       Occupied  (A) (A) (A) (A) (A) (A) (A) (A) (A) (A) (A) (A)
                 (A) (A) (A) (A) (A) (A) (A) (A) (A) (A) (A) (A)
                 (A) (A) (A) (A) (A) (A) (A) (A) (A) (A) (A) (A)
                 (A) (A) (A) (A) (A) (A) (A) (A) (A) (A) (A) (A)
                 (A) (A) (A) (A) (A) (A) (A) (A) (A) (A) (A) (A)
                 (A) (A) (A) (A) (A) (A) (A) (A) (A) (A) (A) (A)
                 (A) (A) (A) (A) (A) (A) (A) (A) (A) (A) (A) (A)
                 (A) (A) (A) (A) (A) (A) (A) (A) (A) (A) (A) (A)
                 (A) (A) (A) (A) (A) (A) (A) (A) (A) (A) (A) (A)
                 (A) (A) (A) (A) (A) (A) (A) (A) (A) (A) (A) (A)
                 (A) (A) (A) (A) (A) (A) (A) (A) (A) (A) (A) (A)
                 (A) (A) (A) (A) (A) (A) (A) (A)
       Virtual   (A) (A) (A) (A) (A) (A) (A) (A) (A) (A) (A) (A)
                 (A) (A) (A) (A) (A) (A) (A) (A) (A) (A) (A) (A)
                 (A) (A) (A) (A) (A) (A) (A) (A) (A) (A) (A) (A)
                 (A) (A) (A) (A) (A) (A) (A) (A) (A) (A) (A) (A)
                 (A) (A) (A) (A) (A) (A) (A) (A) (A) (A) (A) (A)
                 (A) (A) (A) (A) (A) (A) (A) (A) (A) (A) (A) (A)
                 (A) (A) (A) (A) (A) (A) (A) (A) (A) (A) (A) (A)
                 (A) (A) (A) (A) (A) (A) (A) (A) (A) (A) (A) (A)
                 (A) (A) (A) (A) (A) (A) (A) (A) (A) (A) (A) (A)
                 (A) (A) (A) (A) (A) (A) (A) (A) (A) (A) (A) (A)
                 (A) (A) (A) (A) (A) (A) (A) (A) (A) (A) (A) (A)
                 (A) (A) (A) (A) (A) (A) (A) (A) (A) (A) (A) (A)
                 (A) (A) (A) (A) (A) (A) (A) (A) (A) (A) (A) (A)
                 (A) (A) (A) (A) (A) (A) (A) (A) (A) (A) (A) (A)
                 (A) (A) (A) (A) (A) (A) (A) (A) (A) (A) (A) (A)
                 (A) (A) (A) (A) (A) (A) (A) (A) (A) (A) (A) (A)
                 (A) (A) (A) (A) (A) (A) (A) (A) (A) (A) (A) (A)
                 (A) (A) (A) (A) (A) (A) (A) (A) (A) (A) (A) (A)
                 (A) (A) (A) (A) (A) (A) (A) (A) (A) (A) (A) (A)
                 (A) (A) (A) (A) (A) (A) (A) (A) (A) (A) (A) (A)
                 (A) (A) (A) (A) (A) (A) (A) (A) (A) (A) (A) (A)
                 (A) (A) (A) (A) (A) (A) (A) (A) (A) (A) (A) (A)
                 (A) (A) (A) (A) (A) (A) (A) (A) (A) (A) (A) (A)
                 (A) (A) (A) (A) (A) (A) (A) (A) (A) (A) (A) (A)
                 (A) (A) (A) (A) (A) (A) (A) (A) (A) (A) (A) (A)
                 (A) (A) (A) (A) (A) (A) (A) (A) (A) (A) (A) (A)
                 (A) (A) (A) (A) (A) (A) (A) (A) (A) (A) (A) (A)
                 (A) (A) (A) (A) (A) (A) (A) (A) (A) (A) (A) (A)
                 (A) (A) (A) (A) (A) (A) (A) (A) (A) (A) (A) (A)
                 (A) (A) (A) (A) (A) (A) (A) (A) (A) (A) (A) (A)
                 (A) (A) (A) (A) (A) (A) (A) (A) (A) (A) (A) (A)
                 (A) (A) (A) (A) (A) (A) (A) (A) (A) (A) (A) (A)
                 (A) (A) (A) (A) (A) (A) (A) (A) (A) (A) (A) (A)
                 (A) (A) (A) (A) (A) (A) (A) (A) (A) (A) (A) (A)
                 (A) (A) (A) (A) (A) (A) (A) (A) (A) (A) (A) (A)
                 (A) (A) (A) (A) (A) (A) (A) (A) (A) (A) (A) (A)
                 (A) (A) (A) (A) (A) (A) (A) (A) (A) (A) (A) (A)
                 (A) (A) (A) (A) (A) (A) (A) (A) (A) (A) (A) (A)
                 (A) (A) (A) (A) (A) (A) (A) (A) (A) (A) (A) (A)
                 (A) (A) (A) (A) (A) (A) (A) (A) (A) (A) (A) (A)
                 (A) (A) (A) (A) (A) (A)
 The electronic state is 1-A.
 Alpha  occ. eigenvalues --  -90.10298 -19.63450 -19.60135 -19.59039 -19.58470
 Alpha  occ. eigenvalues --  -19.58314 -14.84784 -14.80460 -14.69322 -10.65589
 Alpha  occ. eigenvalues --  -10.63209 -10.62411 -10.61515 -10.59126 -10.59110
 Alpha  occ. eigenvalues --  -10.58980 -10.57822 -10.57402 -10.56777 -10.56679
 Alpha  occ. eigenvalues --  -10.55985 -10.55721 -10.55570 -10.55012 -10.54948
 Alpha  occ. eigenvalues --  -10.54894 -10.54621 -10.54580 -10.54509 -10.53865
 Alpha  occ. eigenvalues --  -10.53578 -10.53539 -10.53309 -10.53270 -10.52746
 Alpha  occ. eigenvalues --  -10.52622  -8.41258  -6.33496  -6.33404  -6.33324
 Alpha  occ. eigenvalues --   -1.19179  -1.17800  -1.12923  -1.10190  -1.09909
 Alpha  occ. eigenvalues --   -1.09106  -1.06073  -0.97522  -0.95305  -0.94759
 Alpha  occ. eigenvalues --   -0.92184  -0.89831  -0.88562  -0.88211  -0.85054
 Alpha  occ. eigenvalues --   -0.84898  -0.83671  -0.83516  -0.83297  -0.80113
 Alpha  occ. eigenvalues --   -0.79272  -0.76326  -0.75630  -0.74679  -0.70934
 Alpha  occ. eigenvalues --   -0.70220  -0.69206  -0.68686  -0.68343  -0.68055
 Alpha  occ. eigenvalues --   -0.65904  -0.64739  -0.63922  -0.63449  -0.61598
 Alpha  occ. eigenvalues --   -0.60256  -0.59370  -0.59044  -0.58349  -0.56156
 Alpha  occ. eigenvalues --   -0.55508  -0.55215  -0.55111  -0.54222  -0.53772
 Alpha  occ. eigenvalues --   -0.53445  -0.53057  -0.52528  -0.51919  -0.51680
 Alpha  occ. eigenvalues --   -0.51095  -0.50966  -0.50613  -0.50073  -0.49831
 Alpha  occ. eigenvalues --   -0.49606  -0.49536  -0.48793  -0.48325  -0.47994
 Alpha  occ. eigenvalues --   -0.47806  -0.47193  -0.47039  -0.46975  -0.45880
 Alpha  occ. eigenvalues --   -0.45672  -0.45219  -0.43943  -0.43663  -0.43443
 Alpha  occ. eigenvalues --   -0.42813  -0.42682  -0.42189  -0.42025  -0.41868
 Alpha  occ. eigenvalues --   -0.41172  -0.40899  -0.40533  -0.39890  -0.39580
 Alpha  occ. eigenvalues --   -0.39362  -0.39270  -0.38922  -0.38397  -0.37987
 Alpha  occ. eigenvalues --   -0.37324  -0.36224  -0.35819  -0.35337  -0.35150
 Alpha  occ. eigenvalues --   -0.34324  -0.33047  -0.32021  -0.31651  -0.31468
 Alpha  occ. eigenvalues --   -0.29903  -0.28857  -0.28320  -0.27379  -0.25358
 Alpha virt. eigenvalues --   -0.01036   0.00671   0.03193   0.03749   0.08951
 Alpha virt. eigenvalues --    0.10171   0.10917   0.11813   0.12956   0.13551
 Alpha virt. eigenvalues --    0.13854   0.14297   0.14994   0.15480   0.15830
 Alpha virt. eigenvalues --    0.16192   0.16446   0.17260   0.17514   0.17989
 Alpha virt. eigenvalues --    0.18309   0.18402   0.18591   0.18929   0.19161
 Alpha virt. eigenvalues --    0.19439   0.19633   0.20038   0.20367   0.20474
 Alpha virt. eigenvalues --    0.20840   0.20992   0.21259   0.21649   0.21920
 Alpha virt. eigenvalues --    0.22212   0.22588   0.22816   0.22859   0.23211
 Alpha virt. eigenvalues --    0.23714   0.23916   0.24302   0.24413   0.24584
 Alpha virt. eigenvalues --    0.24907   0.25271   0.25313   0.25913   0.26443
 Alpha virt. eigenvalues --    0.27065   0.27438   0.27604   0.28162   0.28370
 Alpha virt. eigenvalues --    0.28660   0.29406   0.29594   0.30420   0.30569
 Alpha virt. eigenvalues --    0.30797   0.31133   0.31709   0.32171   0.32591
 Alpha virt. eigenvalues --    0.32970   0.33588   0.34637   0.35232   0.35450
 Alpha virt. eigenvalues --    0.35847   0.36659   0.37252   0.38130   0.38504
 Alpha virt. eigenvalues --    0.39696   0.39870   0.41239   0.41770   0.42958
 Alpha virt. eigenvalues --    0.44946   0.47217   0.47689   0.48602   0.50123
 Alpha virt. eigenvalues --    0.51072   0.52349   0.53463   0.53706   0.55273
 Alpha virt. eigenvalues --    0.55619   0.56192   0.56884   0.57011   0.57836
 Alpha virt. eigenvalues --    0.58023   0.58853   0.58959   0.59149   0.59322
 Alpha virt. eigenvalues --    0.59621   0.60403   0.60836   0.61017   0.61229
 Alpha virt. eigenvalues --    0.61486   0.61656   0.61850   0.62499   0.62759
 Alpha virt. eigenvalues --    0.63594   0.63856   0.64376   0.64725   0.65363
 Alpha virt. eigenvalues --    0.65963   0.66157   0.66961   0.67395   0.67630
 Alpha virt. eigenvalues --    0.67717   0.68448   0.69024   0.69365   0.70181
 Alpha virt. eigenvalues --    0.70721   0.71352   0.71770   0.71938   0.72861
 Alpha virt. eigenvalues --    0.73084   0.73662   0.74086   0.74632   0.75258
 Alpha virt. eigenvalues --    0.75599   0.75907   0.76380   0.76872   0.77493
 Alpha virt. eigenvalues --    0.78251   0.78807   0.79449   0.80026   0.80907
 Alpha virt. eigenvalues --    0.81355   0.81606   0.82637   0.83077   0.83743
 Alpha virt. eigenvalues --    0.84629   0.85364   0.85403   0.85476   0.86606
 Alpha virt. eigenvalues --    0.86900   0.87535   0.88110   0.88672   0.88804
 Alpha virt. eigenvalues --    0.89556   0.89701   0.90446   0.90674   0.90953
 Alpha virt. eigenvalues --    0.91286   0.91699   0.92262   0.92549   0.92842
 Alpha virt. eigenvalues --    0.93076   0.93457   0.93995   0.94157   0.94782
 Alpha virt. eigenvalues --    0.95294   0.95600   0.96282   0.96481   0.96647
 Alpha virt. eigenvalues --    0.96807   0.97131   0.97313   0.97809   0.98119
 Alpha virt. eigenvalues --    0.98599   0.99111   0.99168   0.99593   0.99619
 Alpha virt. eigenvalues --    1.00204   1.00342   1.01475   1.01787   1.02138
 Alpha virt. eigenvalues --    1.02459   1.03075   1.03643   1.04130   1.04980
 Alpha virt. eigenvalues --    1.05362   1.05628   1.06110   1.06501   1.06749
 Alpha virt. eigenvalues --    1.07817   1.08425   1.09034   1.10190   1.11223
 Alpha virt. eigenvalues --    1.11753   1.12498   1.12802   1.13497   1.14394
 Alpha virt. eigenvalues --    1.15040   1.15670   1.16758   1.17574   1.18589
 Alpha virt. eigenvalues --    1.18830   1.19389   1.19695   1.21006   1.21608
 Alpha virt. eigenvalues --    1.22479   1.23196   1.24241   1.24877   1.25422
 Alpha virt. eigenvalues --    1.26345   1.26874   1.27616   1.28010   1.29363
 Alpha virt. eigenvalues --    1.29760   1.30236   1.31382   1.32177   1.33097
 Alpha virt. eigenvalues --    1.33606   1.34653   1.35315   1.36283   1.36435
 Alpha virt. eigenvalues --    1.37655   1.38934   1.39643   1.40367   1.40822
 Alpha virt. eigenvalues --    1.41614   1.42566   1.43788   1.44143   1.44618
 Alpha virt. eigenvalues --    1.45368   1.46522   1.48069   1.48735   1.49347
 Alpha virt. eigenvalues --    1.49943   1.50265   1.51186   1.51736   1.52553
 Alpha virt. eigenvalues --    1.52592   1.53146   1.54071   1.55150   1.55365
 Alpha virt. eigenvalues --    1.55904   1.56615   1.57673   1.58470   1.58937
 Alpha virt. eigenvalues --    1.60330   1.61216   1.61944   1.62493   1.63829
 Alpha virt. eigenvalues --    1.67223   1.67534   1.68703   1.70301   1.71301
 Alpha virt. eigenvalues --    1.72714   1.73848   1.75645   1.76195   1.77026
 Alpha virt. eigenvalues --    1.78087   1.78244   1.79897   1.80128   1.81325
 Alpha virt. eigenvalues --    1.81807   1.83063   1.83466   1.84370   1.84714
 Alpha virt. eigenvalues --    1.86146   1.86620   1.86906   1.87413   1.88538
 Alpha virt. eigenvalues --    1.88717   1.89712   1.90371   1.91177   1.91419
 Alpha virt. eigenvalues --    1.91943   1.92187   1.92672   1.93321   1.93500
 Alpha virt. eigenvalues --    1.93953   1.94598   1.95028   1.95666   1.96309
 Alpha virt. eigenvalues --    1.97392   1.97724   1.98696   1.98843   1.99826
 Alpha virt. eigenvalues --    2.00280   2.01048   2.01520   2.02419   2.03149
 Alpha virt. eigenvalues --    2.03612   2.03869   2.03976   2.04743   2.05621
 Alpha virt. eigenvalues --    2.06094   2.06617   2.07023   2.07377   2.08458
 Alpha virt. eigenvalues --    2.08683   2.09679   2.09799   2.10437   2.11209
 Alpha virt. eigenvalues --    2.11745   2.12409   2.13095   2.13612   2.14176
 Alpha virt. eigenvalues --    2.15057   2.16001   2.16168   2.17243   2.17622
 Alpha virt. eigenvalues --    2.18792   2.19190   2.19935   2.20813   2.21300
 Alpha virt. eigenvalues --    2.21855   2.22545   2.22988   2.24133   2.24441
 Alpha virt. eigenvalues --    2.24889   2.25306   2.26050   2.27175   2.28552
 Alpha virt. eigenvalues --    2.29054   2.29542   2.30540   2.31101   2.31983
 Alpha virt. eigenvalues --    2.32411   2.33018   2.33282   2.34940   2.35259
 Alpha virt. eigenvalues --    2.36028   2.36549   2.37030   2.37945   2.38325
 Alpha virt. eigenvalues --    2.39467   2.39796   2.40112   2.41058   2.41893
 Alpha virt. eigenvalues --    2.42662   2.43576   2.44294   2.45118   2.46529
 Alpha virt. eigenvalues --    2.49100   2.50282   2.51649   2.51868   2.52085
 Alpha virt. eigenvalues --    2.53170   2.54021   2.55976   2.56333   2.56666
 Alpha virt. eigenvalues --    2.59603   2.60368   2.61501   2.62344   2.63452
 Alpha virt. eigenvalues --    2.63635   2.65397   2.66109   2.66792   2.68013
 Alpha virt. eigenvalues --    2.68441   2.68684   2.69824   2.71159   2.71515
 Alpha virt. eigenvalues --    2.72756   2.72946   2.74179   2.76488   2.76802
 Alpha virt. eigenvalues --    2.77680   2.78449   2.79601   2.79746   2.80408
 Alpha virt. eigenvalues --    2.83111   2.83985   2.86407   2.87401   2.89020
 Alpha virt. eigenvalues --    2.93033   2.93357   2.94050   2.95260   2.96386
 Alpha virt. eigenvalues --    2.99603   3.00159   3.01191   3.02528   3.10275
 Alpha virt. eigenvalues --    3.17657   3.20670   3.23630   3.42502   3.43105
 Alpha virt. eigenvalues --    3.96974   4.03388   4.07470   4.11081   4.12161
 Alpha virt. eigenvalues --    4.14353   4.15939   4.17258   4.18273   4.19863
 Alpha virt. eigenvalues --    4.22188   4.24377   4.24839   4.26400   4.26921
 Alpha virt. eigenvalues --    4.31068   4.31582   4.33171   4.34749   4.36311
 Alpha virt. eigenvalues --    4.37285   4.38286   4.40335   4.41317   4.44764
 Alpha virt. eigenvalues --    4.47061   4.49206   4.52937   4.58696   4.59263
 Alpha virt. eigenvalues --    4.62189   4.64402   4.66007   4.75179   4.75729
 Alpha virt. eigenvalues --    4.78348
          Condensed to atoms (all electrons):
 Mulliken charges:
               1
     1  C   -0.303933
     2  C   -0.304186
     3  C   -0.309650
     4  C   -0.072877
     5  C    0.064912
     6  C   -0.304911
     7  H    0.166544
     8  H    0.161075
     9  H    0.159155
    10  H    0.145591
    11  H    0.156837
    12  H    0.211508
    13  H    0.141009
    14  H    0.179567
    15  H    0.150161
    16  H    0.150003
    17  N   -0.423948
    18  C    0.098599
    19  C    0.085287
    20  C   -0.227042
    21  H    0.204674
    22  C   -0.226468
    23  H    0.262910
    24  C    0.427480
    25  H    0.187806
    26  H    0.207523
    27  N   -0.527792
    28  C   -0.158400
    29  H    0.178302
    30  H    0.198639
    31  C   -0.146334
    32  H    0.169589
    33  H    0.194661
    34  N   -0.760255
    35  S    1.248969
    36  O   -0.643986
    37  O   -0.669767
    38  C    0.049309
    39  C   -0.176271
    40  C   -0.187951
    41  C   -0.169575
    42  C   -0.161339
    43  C   -0.199016
    44  H    0.204733
    45  H    0.139254
    46  H    0.156682
    47  H    0.162085
    48  H    0.157850
    49  O   -0.715660
    50  H    0.484169
    51  C    0.655326
    52  O   -0.521474
    53  O   -0.646800
    54  H    0.485024
    55  C   -0.370959
    56  H    0.202473
    57  H    0.165292
    58  C   -0.064004
    59  H    0.127404
    60  H    0.150428
    61  C   -0.660103
    62  H    0.224447
    63  H    0.186814
    64  H    0.206818
    65  C   -0.288819
    66  H    0.145244
    67  H    0.162778
    68  C   -0.480350
    69  H    0.159118
    70  H    0.158435
    71  H    0.151395
    72  C   -0.336894
    73  H    0.184430
    74  H    0.169883
    75  C   -0.335846
    76  H    0.181413
    77  H    0.173000
 Sum of Mulliken charges =  -0.00000
 Mulliken charges with hydrogens summed into heavy atoms:
               1
     1  C   -0.001505
     2  C    0.016045
     3  C    0.006896
     4  C    0.138631
     5  C    0.205921
     6  C    0.024816
    17  N   -0.423948
    18  C    0.303273
    19  C    0.348197
    20  C   -0.039236
    22  C   -0.018944
    24  C    0.427480
    27  N   -0.527792
    28  C    0.218542
    31  C    0.217916
    34  N   -0.760255
    35  S    1.248969
    36  O   -0.643986
    37  O   -0.669767
    38  C    0.049309
    39  C    0.028462
    40  C   -0.048697
    41  C   -0.012893
    42  C    0.000746
    43  C   -0.041165
    49  O   -0.231491
    51  C    0.655326
    52  O   -0.521474
    53  O   -0.161776
    55  C   -0.003194
    58  C    0.213828
    61  C   -0.042023
    65  C    0.019203
    68  C   -0.011402
    72  C    0.017419
    75  C    0.018567
 Electronic spatial extent (au):  <R**2>=          14980.6662
 Charge=             -0.0000 electrons
 Dipole moment (field-independent basis, Debye):
    X=              1.5509    Y=             -0.2223    Z=             -6.6380  Tot=              6.8204
 Quadrupole moment (field-independent basis, Debye-Ang):
   XX=           -199.0840   YY=           -222.5264   ZZ=           -222.4923
   XY=            -11.6813   XZ=             -0.2571   YZ=             12.6517
 Traceless Quadrupole moment (field-independent basis, Debye-Ang):
   XX=             15.6169   YY=             -7.8255   ZZ=             -7.7914
   XY=            -11.6813   XZ=             -0.2571   YZ=             12.6517
 Octapole moment (field-independent basis, Debye-Ang**2):
  XXX=             71.7611  YYY=            -30.1672  ZZZ=             -1.0188  XYY=             20.9082
  XXY=            -11.5664  XXZ=            -26.6976  XZZ=             -5.9537  YZZ=             19.9392
  YYZ=             10.1511  XYZ=            -16.5826
 Hexadecapole moment (field-independent basis, Debye-Ang**3):
 XXXX=         -10015.0886 YYYY=          -5772.3960 ZZZZ=          -3800.2925 XXXY=           -169.4112
 XXXZ=             -7.0421 YYYX=            -96.5622 YYYZ=             79.3845 ZZZX=            -72.5159
 ZZZY=             16.9727 XXYY=          -2628.9419 XXZZ=          -2369.7155 YYZZ=          -1721.1299
 XXYZ=             49.8510 YYXZ=             60.0343 ZZXY=            -47.5260
 N-N= 4.900420489950D+03 E-N=-1.445338739210D+04  KE= 1.976481557974D+03
 No NMR shielding tensors so no spin-rotation constants.
 Leave Link  601 at Thu Feb  7 23:04:02 2019, MaxMem=   104857600 cpu:              41.9 elap:               1.9
 (Enter /home/xinyan/g16/l701.exe)
 ... and contract with generalized density number  0.
 Compute integral first derivatives.
 R6Disp: Adding Grimme-D3 dispersion energy 1st derivatives to the gradient.
 Leave Link  701 at Thu Feb  7 23:04:03 2019, MaxMem=   104857600 cpu:              22.6 elap:               1.0
 (Enter /home/xinyan/g16/l702.exe)
 L702 exits ... SP integral derivatives will be done elsewhere.
 Leave Link  702 at Thu Feb  7 23:04:03 2019, MaxMem=   104857600 cpu:               1.4 elap:               0.1
 (Enter /home/xinyan/g16/l703.exe)
 Integral derivatives from FoFJK, PRISM(SPDF).
 Compute integral first derivatives, UseDBF=F ICtDFT=           0.
 Calling FoFJK, ICntrl=      2127 FMM=T ISym2X=0 I1Cent= 0 IOpClX= 0 NMat=1 NMatS=1 NMatT=0.
 FoFJK:  IHMeth= 1 ICntrl=    2127 DoSepK=F KAlg= 0 I1Cent=           0 FoldK=F
 IRaf=         0 NMat=       1 IRICut=       1 DoRegI=T DoRafI=F ISym2E= 0 IDoP0=0 IntGTp=1.
 FoFCou: FMM=T IPFlag=           0 FMFlag=      100000 FMFlg1=        2001
         NFxFlg=           0 DoJE=F BraDBF=F KetDBF=F FulRan=T
         wScrn=  0.000000 ICntrl=      2127 IOpCl=  0 I1Cent=           0 NGrid=           0
         NMat0=    1 NMatS0=      1 NMatT0=    0 NMatD0=    1 NMtDS0=    0 NMtDT0=    0
 Symmetry not used in FoFCou.
 FMM levels:  10  Number of levels for PrismC:   9
 Leave Link  703 at Thu Feb  7 23:04:36 2019, MaxMem=   104857600 cpu:             778.6 elap:              33.4
 (Enter /home/xinyan/g16/l716.exe)
 Dipole        = 6.10153068D-01-8.74572747D-02-2.61157817D+00
 ***** Axes restored to original set *****
 -------------------------------------------------------------------
 Center     Atomic                   Forces (Hartrees/Bohr)
 Number     Number              X              Y              Z
 -------------------------------------------------------------------
      1        6           0.000027568   -0.000119522    0.000017778
      2        6           0.000127832   -0.000048944    0.000152608
      3        6           0.000092137    0.000003087    0.000054274
      4        6           0.000062911    0.000191830    0.000171866
      5        6           0.000016031    0.000180391   -0.000061516
      6        6           0.000042410    0.000105558    0.000182917
      7        1           0.000084987    0.000057037    0.000078179
      8        1           0.000089546   -0.000045279    0.000086127
      9        1           0.000034560   -0.000025288    0.000138433
     10        1          -0.000090199    0.000025625    0.000152334
     11        1          -0.000011909   -0.000111358    0.000187010
     12        1           0.000132976    0.000051773    0.000152595
     13        1          -0.000048729   -0.000067000    0.000197103
     14        1           0.000116209   -0.000091746    0.000155909
     15        1           0.000016096    0.000007050    0.000140914
     16        1          -0.000002173    0.000078540    0.000068608
     17        7           0.000085280    0.000048582    0.000070513
     18        6           0.000040705    0.000021974   -0.000000472
     19        6           0.000078000    0.000048734    0.000012561
     20        6           0.000056420   -0.000020175   -0.000023787
     21        1           0.000070971    0.000095274    0.000068311
     22        6           0.000020967   -0.000037275   -0.000026351
     23        1           0.000060146    0.000047381    0.000014800
     24        6           0.000071385   -0.000081670   -0.000076086
     25        1           0.000045087   -0.000023614   -0.000034542
     26        1           0.000051218   -0.000086243   -0.000081879
     27        7           0.000071523   -0.000089392   -0.000075231
     28        6           0.000059417   -0.000189868   -0.000158855
     29        1           0.000045056   -0.000172519   -0.000200625
     30        1           0.000125381   -0.000220056   -0.000116573
     31        6           0.000072849   -0.000110854   -0.000139103
     32        1          -0.000001457   -0.000110615   -0.000122478
     33        1           0.000066844   -0.000069921   -0.000054540
     34        7           0.000179210    0.000166036    0.000107259
     35       16           0.000023273    0.000102251   -0.000121398
     36        8           0.000080030    0.000008810   -0.000223010
     37        8           0.000128756    0.000083024    0.000011726
     38        6          -0.000236230    0.000257418   -0.000043165
     39        6          -0.000145555    0.000213238   -0.000043378
     40        6           0.000143990   -0.000003441    0.000106735
     41        6          -0.000037757   -0.000019759   -0.000227661
     42        6          -0.000125843    0.000036001   -0.000343269
     43        6          -0.000391420    0.000223831   -0.000353531
     44        1          -0.000200330    0.000284976    0.000248174
     45        1           0.000141440   -0.000025721    0.000120947
     46        1           0.000130000   -0.000167016   -0.000247026
     47        1          -0.000129687   -0.000010368   -0.000533573
     48        1          -0.000427387    0.000290780   -0.000405797
     49        8           0.000113306    0.000944326   -0.000113480
     50        1          -0.000012700    0.000094542   -0.000030410
     51        6           0.000073723   -0.000144206    0.000218350
     52        8          -0.000003078   -0.000056674    0.000215535
     53        8          -0.000140495    0.000192266   -0.000039145
     54        1          -0.000097705    0.000074766    0.000144273
     55        6           0.000207035   -0.000173493    0.000084884
     56        1           0.000438302   -0.000152141    0.000188511
     57        1           0.000280809   -0.000315615   -0.000125883
     58        6          -0.000300763    0.000410496    0.000097442
     59        1          -0.000608630   -0.000029360   -0.000037993
     60        1          -0.000743855    0.000664465    0.000088711
     61        6          -0.000108396   -0.000130450    0.000079618
     62        1          -0.000254277   -0.000018480    0.000199135
     63        1          -0.000214231   -0.000298806    0.000066863
     64        1          -0.000107443   -0.000248729    0.000003390
     65        6           0.000110230   -0.000097539    0.000115539
     66        1           0.000118595   -0.000008718    0.000060842
     67        1           0.000064039   -0.000163503    0.000224851
     68        6          -0.000012550   -0.000012745    0.000144977
     69        1          -0.000152947    0.000074521    0.000185006
     70        1          -0.000020944   -0.000124030    0.000225151
     71        1           0.000057552    0.000086786    0.000040046
     72        6           0.000064061   -0.000198697   -0.000202597
     73        1           0.000099396   -0.000248834   -0.000201961
     74        1           0.000020309   -0.000207326   -0.000216756
     75        6           0.000066852   -0.000218117   -0.000132027
     76        1           0.000144814   -0.000184170   -0.000096225
     77        1           0.000076456   -0.000192093   -0.000170481
 -------------------------------------------------------------------
 Cartesian Forces:  Max     0.000944326 RMS     0.000178523
 Z-matrix is all fixed cartesians, so copy forces.
 Leave Link  716 at Thu Feb  7 23:04:36 2019, MaxMem=   104857600 cpu:               2.4 elap:               0.1
 (Enter /home/xinyan/g16/l103.exe)

 GradGradGradGradGradGradGradGradGradGradGradGradGradGradGradGradGradGrad
 Berny optimization.
 Search for a local minimum.
 Step number   1 out of a maximum of    2
 All quantities printed in internal units (Hartrees-Bohrs-Radians)
 Second derivative matrix not updated -- first step.
 ITU=  0
     Eigenvalues ---    0.00000   0.00000   0.00000   0.00000   0.00000
     Eigenvalues ---    0.00000   0.00000   0.00000   0.00000   0.00000
     Eigenvalues ---    0.00000   0.00000   0.00013   0.00018   0.00034
     Eigenvalues ---    0.00063   0.00115   0.00133   0.00167   0.00178
     Eigenvalues ---    0.00202   0.00219   0.00277   0.00283   0.00392
     Eigenvalues ---    0.00443   0.00503   0.00506   0.00589   0.00594
     Eigenvalues ---    0.00663   0.00672   0.00785   0.00974   0.01115
     Eigenvalues ---    0.01222   0.01646   0.01722   0.01723   0.01847
     Eigenvalues ---    0.01885   0.02009   0.02215   0.02390   0.02498
     Eigenvalues ---    0.02548   0.02737   0.02798   0.03089   0.03378
     Eigenvalues ---    0.03507   0.03547   0.03562   0.03646   0.04079
     Eigenvalues ---    0.04143   0.04217   0.04316   0.04651   0.04787
     Eigenvalues ---    0.04857   0.04880   0.04998   0.05050   0.05093
     Eigenvalues ---    0.05104   0.05133   0.05161   0.05302   0.05352
     Eigenvalues ---    0.05500   0.05597   0.05663   0.05692   0.05753
     Eigenvalues ---    0.05762   0.05795   0.06138   0.06234   0.06414
     Eigenvalues ---    0.06509   0.06594   0.06845   0.06964   0.07048
     Eigenvalues ---    0.07088   0.07213   0.07231   0.07289   0.07343
     Eigenvalues ---    0.07554   0.07922   0.07942   0.08019   0.08122
     Eigenvalues ---    0.08168   0.08571   0.08615   0.09114   0.09684
     Eigenvalues ---    0.09758   0.10028   0.10091   0.10219   0.10653
     Eigenvalues ---    0.11199   0.11424   0.11526   0.11915   0.12232
     Eigenvalues ---    0.12782   0.12913   0.13012   0.13021   0.13277
     Eigenvalues ---    0.13730   0.13774   0.13939   0.14193   0.14356
     Eigenvalues ---    0.15808   0.16365   0.16621   0.16672   0.16783
     Eigenvalues ---    0.16885   0.17203   0.17318   0.17635   0.17714
     Eigenvalues ---    0.18632   0.19099   0.20281   0.20634   0.20682
     Eigenvalues ---    0.20755   0.21784   0.22001   0.23126   0.24721
     Eigenvalues ---    0.26454   0.27610   0.29713   0.29813   0.30115
     Eigenvalues ---    0.30267   0.31595   0.32440   0.34274   0.34772
     Eigenvalues ---    0.35038   0.36797   0.39316   0.41795   0.42350
     Eigenvalues ---    0.44068   0.44802   0.45071   0.48434   0.49269
     Eigenvalues ---    0.50301   0.56094   0.57462   0.59200   0.62589
     Eigenvalues ---    0.65108   0.65772   0.67967   0.68271   0.69213
     Eigenvalues ---    0.70660   0.75490   0.78170   0.78407   0.79616
     Eigenvalues ---    0.82211   0.82978   0.83922   0.85821   0.87098
     Eigenvalues ---    0.88971   0.89491   0.90491   0.91125   0.92400
     Eigenvalues ---    0.93442   0.93988   0.94424   0.94534   0.95430
     Eigenvalues ---    0.96030   0.97467   0.99734   0.99764   1.00232
     Eigenvalues ---    1.01224   1.02108   1.04075   1.04399   1.05482
     Eigenvalues ---    1.05938   1.06220   1.06456   1.07958   1.08802
     Eigenvalues ---    1.10118   1.14134   1.16285   1.18158   1.20247
     Eigenvalues ---    1.23201   1.24273   1.27965   1.36856   1.39361
     Eigenvalues ---    1.48341   1.54001   1.56907   1.59398   1.60487
     Eigenvalues ---    1.70716   1.75503   1.81594   2.12099   2.28726
 Eigenvalue     1 is   0.00D+00 Eigenvector:
                          Y69       Y71       Y66       Y68       Y65
   1                    0.17724   0.17724   0.17724   0.17724   0.17724
                          Y70       Y57       Y67       Y55       Y52
   1                    0.17724   0.17724   0.17724   0.17724   0.17724
 Eigenvalue     2 is   6.66D-16 Eigenvector:
                          X53       X54       X56       X57       X51
   1                    0.18940   0.18940   0.18940   0.18940   0.18940
                          X55       X70       X52       X71       X65
   1                    0.18940   0.18940   0.18940   0.18940   0.18940
 Eigenvalue     3 is   1.33D-15 Eigenvector:
                          Y46       Y41       Y45       Y47       Y40
   1                    0.20252   0.20252   0.20252   0.20252   0.20252
                          Y42       Y39       Y43       Y44       Y48
   1                    0.20252   0.20252   0.20252   0.20252   0.20252
 Eigenvalue     4 is   3.21D-09 Eigenvector:
                          Z44       Z49       Z50       Z45       Z39
   1                    0.26947   0.24727   0.24322   0.21726   0.20168
                          X59       Z60       Z58       Z40       X60
   1                   -0.19734   0.18957   0.17413   0.17229  -0.16515
 Eigenvalue     5 is   7.48D-09 Eigenvector:
                          Z47       X45       X46       Z48       X40
   1                    0.24766  -0.24574  -0.24419   0.18984  -0.18748
                          X41       Z42       Y49       Z43       Y60
   1                   -0.18691   0.17188  -0.15014   0.13944  -0.13855
 Eigenvalue     6 is   9.01D-09 Eigenvector:
                          Z54       Z53       Z52       Z51       Z69
   1                    0.45013   0.34571   0.31873   0.26150  -0.25421
                          Z70       Z71       Y66       Y69       Z68
   1                   -0.23591  -0.20108  -0.19103  -0.18718  -0.18545
 Eigenvalue     7 is   2.52D-08 Eigenvector:
                          X54       X69       X53       X70       Y54
   1                    0.41277  -0.34705   0.34663  -0.25682  -0.23445
                          X68       Y71       X51       X52       X71
   1                   -0.22631   0.21888   0.20494   0.18544  -0.17428
 Eigenvalue     8 is   5.61D-08 Eigenvector:
                          X50       Y47       Y44       X49       Y60
   1                    0.36049  -0.35718   0.27425   0.26847   0.24760
                          Y42       Y48       X47       Y49       Y46
   1                   -0.21677  -0.21523  -0.21029   0.20472  -0.17699
 Eigenvalue     9 is   8.52D-08 Eigenvector:
                          Y45       Y59       Y46       X45       Y40
   1                    0.30916  -0.24338   0.23295   0.20852   0.20157
                          Y48       X46       Z50       Y41       X40
   1                   -0.17967   0.16751  -0.16307   0.15902   0.14372
 Eigenvalue    10 is   1.13D-07 Eigenvector:
                          X59       X60       X48       Y48       X58
   1                    0.20408   0.19008   0.17174   0.15165   0.15145
                          Y73       Y77       Y74       Y72       Y59
   1                    0.15074   0.13715   0.13636   0.13086   0.12608
 Eigenvalue    11 is   1.85D-07 Eigenvector:
                          Y64       Y62       Y61       Y63       Z76
   1                    0.25135   0.20821   0.20285   0.19013  -0.15241
                          Y37       Y7        Y16       Z77       Z60
   1                    0.15162  -0.14255  -0.14115  -0.14069   0.14002
 Eigenvalue    12 is   3.75D-06 Eigenvector:
                          X52       X66       X56       Z67       Z57
   1                    0.34019   0.33397  -0.31272  -0.29744   0.27963
                          X70       Z71       Y52       Y67       Y57
   1                   -0.27153   0.25688  -0.19832  -0.19525   0.18862
 Quadratic step=2.116D+01 exceeds max=3.000D-01 adjusted using Lamda=-8.081D-03.
 Angle between NR and scaled steps=  24.95 degrees.
 Angle between quadratic step and forces=  19.43 degrees.
 Linear search not attempted -- first point.
 B after Tr=     0.000406    0.001237   -0.000380
         Rot=    1.000000    0.000087   -0.000008   -0.000004 Ang=   0.01 deg.
 Variable       Old X    -DE/DX   Delta X   Delta X   Delta X     New X
                                 (Linear)    (Quad)   (Total)
    X1       -9.35679   0.00003   0.00000  -0.00003   0.00037  -9.35642
    Y1        0.45316  -0.00012   0.00000  -0.00479  -0.00373   0.44943
    Z1       -0.58466   0.00002   0.00000   0.01639   0.01609  -0.56857
    X2       -9.64477   0.00013   0.00000   0.00585   0.00623  -9.63853
    Y2       -1.92493  -0.00005   0.00000  -0.00359  -0.00282  -1.92775
    Z2       -2.20920   0.00015   0.00000   0.01379   0.01391  -2.19529
    X3       -7.09386   0.00009   0.00000   0.00686   0.00723  -7.08663
    Y3       -2.72585   0.00000   0.00000   0.00495   0.00555  -2.72031
    Z3       -3.32739   0.00005   0.00000   0.01067   0.01088  -3.31651
    X4       -5.22441   0.00006   0.00000   0.00910   0.00952  -5.21490
    Y4       -3.16344   0.00019   0.00000   0.00852   0.00951  -3.15393
    Z4       -1.17692   0.00017   0.00000   0.00929   0.00955  -1.16737
    X5       -4.83770   0.00002   0.00000   0.00565   0.00606  -4.83163
    Y5       -0.72248   0.00018   0.00000   0.00939   0.01066  -0.71182
    Z5        0.41555  -0.00006   0.00000   0.00880   0.00862   0.42417
    X6       -7.40219   0.00004   0.00000   0.00468   0.00511  -7.39708
    Y6        0.07515   0.00011   0.00000   0.00044   0.00188   0.07704
    Z6        1.51685   0.00018   0.00000   0.01320   0.01294   1.52978
    X7       -7.28539   0.00008   0.00000   0.01056   0.01093  -7.27446
    Y7       -4.43492   0.00006   0.00000   0.00529   0.00569  -4.42923
    Z7       -4.48181   0.00008   0.00000   0.00959   0.01010  -4.47170
    X8      -10.39884   0.00009   0.00000   0.01116   0.01158 -10.38727
    Y8       -3.47188  -0.00005   0.00000  -0.00719  -0.00622  -3.47810
    Z8       -1.05052   0.00009   0.00000   0.01236   0.01276  -1.03776
    X9      -10.99911   0.00003   0.00000   0.00358   0.00393 -10.99518
    Y9       -1.60099  -0.00003   0.00000  -0.00538  -0.00489  -1.60588
    Z9       -3.73998   0.00014   0.00000   0.01545   0.01554  -3.72444
   X10       -8.73851  -0.00009   0.00000  -0.00853  -0.00817  -8.74668
   Y10        2.02352   0.00003   0.00000  -0.00044   0.00041   2.02393
   Z10       -1.79571   0.00015   0.00000   0.01765   0.01707  -1.77864
   X11      -11.18776  -0.00001   0.00000  -0.00077  -0.00037 -11.18813
   Y11        0.99103  -0.00011   0.00000  -0.01311  -0.01193   0.97910
   Z11        0.21635   0.00019   0.00000   0.02038   0.02002   0.23637
   X12       -5.93756   0.00013   0.00000   0.01194   0.01238  -5.92517
   Y12       -4.65553   0.00005   0.00000   0.00822   0.00942  -4.64611
   Z12        0.06297   0.00015   0.00000   0.01075   0.01128   0.07424
   X13       -4.30563  -0.00005   0.00000   0.00039   0.00077  -4.30485
   Y13        0.74646  -0.00007   0.00000   0.01121   0.01225   0.75871
   Z13       -0.95724   0.00020   0.00000   0.00964   0.00920  -0.94804
   X14       -8.05006   0.00012   0.00000   0.01210   0.01256  -8.03750
   Y14       -1.36325  -0.00009   0.00000  -0.00340  -0.00173  -1.36498
   Z14        2.86280   0.00016   0.00000   0.01302   0.01301   2.87581
   X15       -7.11773   0.00002   0.00000   0.00043   0.00087  -7.11686
   Y15        1.84186   0.00001   0.00000   0.00032   0.00194   1.84380
   Z15        2.56179   0.00014   0.00000   0.01464   0.01406   2.57585
   X16       -6.42658  -0.00000   0.00000   0.00134   0.00168  -6.42490
   Y16       -1.19584   0.00008   0.00000   0.00780   0.00819  -1.18764
   Z16       -4.56208   0.00007   0.00000   0.01113   0.01107  -4.55102
   X17       -2.70250   0.00009   0.00000   0.00779   0.00820  -2.69430
   Y17       -4.03343   0.00005   0.00000   0.00760   0.00846  -4.02497
   Z17       -2.02847   0.00007   0.00000   0.00602   0.00639  -2.02208
   X18       -1.44203   0.00004   0.00000   0.00676   0.00713  -1.43490
   Y18       -2.78347   0.00002   0.00000   0.00606   0.00661  -2.77686
   Z18       -3.86916  -0.00000   0.00000   0.00426   0.00439  -3.86477
   X19       -1.38691   0.00008   0.00000   0.00716   0.00760  -1.37931
   Y19       -5.57581   0.00005   0.00000   0.00260   0.00374  -5.57206
   Z19       -0.46712   0.00001   0.00000   0.00152   0.00213  -0.46499
   X20        1.10991   0.00006   0.00000   0.00543   0.00579   1.11570
   Y20       -2.99941  -0.00002   0.00000  -0.00088  -0.00036  -2.99977
   Z20       -4.18242  -0.00002   0.00000  -0.00194  -0.00181  -4.18423
   X21       -2.56681   0.00007   0.00000   0.00736   0.00770  -2.55912
   Y21       -1.55587   0.00010   0.00000   0.00998   0.01032  -1.54555
   Z21       -5.05719   0.00007   0.00000   0.00775   0.00769  -5.04950
   X22        1.16870   0.00002   0.00000   0.00569   0.00613   1.17483
   Y22       -5.88092  -0.00004   0.00000  -0.00502  -0.00389  -5.88481
   Z22       -0.65681  -0.00003   0.00000  -0.00522  -0.00459  -0.66141
   X23       -2.47220   0.00006   0.00000   0.00783   0.00831  -2.46388
   Y23       -6.47677   0.00005   0.00000   0.00367   0.00507  -6.47170
   Z23        1.02036   0.00001   0.00000   0.00263   0.00342   1.02377
   X24        2.55527   0.00007   0.00000   0.00544   0.00584   2.56111
   Y24       -4.44694  -0.00008   0.00000  -0.00714  -0.00630  -4.45325
   Z24       -2.43794  -0.00008   0.00000  -0.00711  -0.00676  -2.44469
   X25        2.00848   0.00005   0.00000   0.00485   0.00518   2.01365
   Y25       -1.95640  -0.00002   0.00000  -0.00211  -0.00185  -1.95824
   Z25       -5.69433  -0.00003   0.00000  -0.00315  -0.00322  -5.69756
   X26        2.09302   0.00005   0.00000   0.00566   0.00614   2.09916
   Y26       -7.05461  -0.00009   0.00000  -0.00974  -0.00836  -7.06297
   Z26        0.73622  -0.00008   0.00000  -0.00917  -0.00835   0.72786
   X27        5.08809   0.00007   0.00000   0.00541   0.00581   5.09390
   Y27       -4.42950  -0.00009   0.00000  -0.01411  -0.01325  -4.44275
   Z27       -2.44249  -0.00008   0.00000  -0.01333  -0.01302  -2.45551
   X28        6.50225   0.00006   0.00000   0.00802   0.00847   6.51072
   Y28       -5.48844  -0.00019   0.00000  -0.02260  -0.02136  -5.50981
   Z28       -0.30205  -0.00016   0.00000  -0.01926  -0.01879  -0.32085
   X29        6.26626   0.00005   0.00000   0.00409   0.00456   6.27082
   Y29       -7.54005  -0.00017   0.00000  -0.02235  -0.02110  -7.56115
   Z29       -0.21155  -0.00020   0.00000  -0.02419  -0.02336  -0.23491
   X30        5.79337   0.00013   0.00000   0.01394   0.01441   5.80778
   Y30       -4.64806  -0.00022   0.00000  -0.02592  -0.02439  -4.67245
   Z30        1.45991  -0.00012   0.00000  -0.01531  -0.01498   1.44493
   X31        6.54376   0.00007   0.00000   0.00685   0.00721   6.55098
   Y31       -2.45421  -0.00011   0.00000  -0.01496  -0.01432  -2.46853
   Z31       -3.74931  -0.00014   0.00000  -0.01292  -0.01298  -3.76229
   X32        7.01359  -0.00000   0.00000   0.00098   0.00132   7.01490
   Y32       -3.06810  -0.00011   0.00000  -0.01245  -0.01214  -3.08025
   Z32       -5.67232  -0.00012   0.00000  -0.01515  -0.01512  -5.68743
   X33        5.44012   0.00007   0.00000   0.01054   0.01089   5.45101
   Y33       -0.70954  -0.00007   0.00000  -0.01225  -0.01163  -0.72117
   Z33       -3.82626  -0.00005   0.00000  -0.00696  -0.00731  -3.83357
   X34       -2.71567   0.00018   0.00000   0.00580   0.00625  -2.70942
   Y34       -0.86799   0.00017   0.00000   0.01289   0.01447  -0.85351
   Z34        2.13320   0.00011   0.00000   0.00856   0.00837   2.14157
   X35       -2.77227   0.00002   0.00000   0.00681   0.00732  -2.76495
   Y35       -2.67007   0.00010   0.00000  -0.00046   0.00154  -2.66853
   Z35        4.51312  -0.00012   0.00000  -0.00190  -0.00177   4.51135
   X36       -4.82288   0.00008   0.00000   0.01625   0.01677  -4.80611
   Y36       -4.57034   0.00001   0.00000  -0.01003  -0.00806  -4.57840
   Z36        4.45461  -0.00022   0.00000  -0.02218  -0.02168   4.43293
   X37       -0.20324   0.00013   0.00000   0.01071   0.01123  -0.19201
   Y37       -3.74068   0.00008   0.00000   0.01006   0.01215  -3.72853
   Z37        4.92117   0.00001   0.00000   0.00151   0.00178   4.92295
   X38       -1.73772  -0.00024   0.00000  -0.03531  -0.03494  -1.77266
   Y38        5.05281   0.00026   0.00000   0.03079   0.03204   5.08484
   Z38        0.16862  -0.00004   0.00000  -0.00762  -0.00885   0.15977
   X39       -0.55649  -0.00015   0.00000  -0.01535  -0.01501  -0.57150
   Y39        3.74478   0.00021   0.00000   0.02452   0.02543   3.77021
   Z39       -1.80475  -0.00004   0.00000   0.00859   0.00757  -1.79718
   X40       -1.65812   0.00014   0.00000   0.00295   0.00325  -1.65487
   Y40        3.70624  -0.00000   0.00000   0.00550   0.00599   3.71224
   Z40       -4.19549   0.00011   0.00000   0.00081  -0.00019  -4.19568
   X41       -3.97307  -0.00004   0.00000   0.00204   0.00233  -3.97075
   Y41        4.89288  -0.00002   0.00000  -0.00514  -0.00475   4.88813
   Z41       -4.63011  -0.00023   0.00000  -0.02400  -0.02517  -4.65528
   X42       -5.18342  -0.00013   0.00000  -0.01718  -0.01687  -5.20029
   Y42        6.13588   0.00004   0.00000   0.00290   0.00363   6.13951
   Z42       -2.65119  -0.00034   0.00000  -0.04080  -0.04216  -2.69335
   X43       -4.05904  -0.00039   0.00000  -0.03637  -0.03602  -4.09506
   Y43        6.21590   0.00022   0.00000   0.02014   0.02129   6.23718
   Z43       -0.27231  -0.00035   0.00000  -0.03225  -0.03364  -0.30595
   X44        1.17743  -0.00020   0.00000  -0.01490  -0.01454   1.16289
   Y44        2.70036   0.00028   0.00000   0.03266   0.03366   2.73402
   Z44       -1.43510   0.00025   0.00000   0.02837   0.02750  -1.40760
   X45       -0.70621   0.00014   0.00000   0.01787   0.01815  -0.68806
   Y45        2.73511  -0.00003   0.00000  -0.00113  -0.00089   2.73422
   Z45       -5.73715   0.00012   0.00000   0.01421   0.01336  -5.72379
   X46       -4.83001   0.00013   0.00000   0.01633   0.01658  -4.81342
   Y46        4.84945  -0.00017   0.00000  -0.01946  -0.01940   4.83006
   Z46       -6.49435  -0.00025   0.00000  -0.03023  -0.03136  -6.52571
   X47       -6.99985  -0.00013   0.00000  -0.01732  -0.01702  -7.01687
   Y47        7.04265  -0.00001   0.00000  -0.00398  -0.00333   7.03932
   Z47       -2.95100  -0.00053   0.00000  -0.06085  -0.06233  -3.01333
   X48       -5.00112  -0.00043   0.00000  -0.05149  -0.05112  -5.05225
   Y48        7.17858   0.00029   0.00000   0.02721   0.02861   7.20719
   Z48        1.27999  -0.00041   0.00000  -0.04575  -0.04730   1.23269
   X49        0.48575   0.00011   0.00000  -0.01047  -0.01003   0.47572
   Y49        2.86819   0.00094   0.00000   0.06809   0.06995   2.93814
   Z49        3.53468  -0.00011   0.00000   0.00027  -0.00063   3.53404
   X50       -0.64515  -0.00001   0.00000   0.01947   0.01991  -0.62524
   Y50        1.48765   0.00009   0.00000   0.04476   0.04650   1.53415
   Z50        2.88350  -0.00003   0.00000  -0.00418  -0.00481   2.87868
   X51        4.46722   0.00007   0.00000   0.00706   0.00750   4.47472
   Y51        0.40094  -0.00014   0.00000  -0.00957  -0.00784   0.39310
   Z51        2.57721   0.00022   0.00000   0.01515   0.01463   2.59183
   X52        3.78113  -0.00000   0.00000  -0.00262  -0.00220   3.77893
   Y52       -0.29861  -0.00006   0.00000  -0.00584  -0.00449  -0.30310
   Z52        0.49360   0.00022   0.00000   0.01716   0.01677   0.51037
   X53        4.03504  -0.00014   0.00000  -0.00375  -0.00326   4.03178
   Y53       -0.88252   0.00019   0.00000  -0.00205   0.00004  -0.88248
   Z53        4.68282  -0.00004   0.00000   0.01708   0.01679   4.69960
   X54        2.60219  -0.00010   0.00000  -0.01399  -0.01349   2.58870
   Y54       -2.07915   0.00007   0.00000   0.00980   0.01183  -2.06732
   Z54        4.44271   0.00014   0.00000   0.01910   0.01903   4.46174
   X55        6.01231   0.00021   0.00000   0.02568   0.02611   6.03842
   Y55        2.76148  -0.00017   0.00000  -0.02091  -0.01909   2.74238
   Z55        3.01661   0.00008   0.00000   0.01075   0.00980   3.02640
   X56        5.09368   0.00044   0.00000   0.04500   0.04545   5.13913
   Y56        3.79041  -0.00015   0.00000  -0.02189  -0.01982   3.77060
   Z56        4.55779   0.00019   0.00000   0.02286   0.02174   4.57953
   X57        7.88503   0.00028   0.00000   0.02891   0.02936   7.91439
   Y57        2.19380  -0.00032   0.00000  -0.03391  -0.03196   2.16184
   Z57        3.71178  -0.00013   0.00000  -0.00826  -0.00915   3.70263
   X58       -0.54545  -0.00030   0.00000  -0.05341  -0.05301  -0.59846
   Y58        5.17424   0.00041   0.00000   0.04861   0.05033   5.22457
   Z58        2.76609   0.00010   0.00000   0.00008  -0.00120   2.76489
   X59       -1.96072  -0.00061   0.00000  -0.07495  -0.07452  -2.03525
   Y59        5.87845  -0.00003   0.00000   0.01616   0.01810   5.89654
   Z59        4.12276  -0.00004   0.00000  -0.00576  -0.00713   4.11563
   X60        1.00584  -0.00074   0.00000  -0.08113  -0.08073   0.92511
   Y60        6.55964   0.00066   0.00000   0.07950   0.08123   6.64087
   Z60        2.75269   0.00009   0.00000   0.01167   0.01012   2.76281
   X61       -3.27374  -0.00011   0.00000  -0.01612  -0.01558  -3.28933
   Y61       -0.69298  -0.00013   0.00000  -0.02017  -0.01770  -0.71068
   Z61        7.21369   0.00008   0.00000   0.00838   0.00818   7.22187
   X62       -1.79271  -0.00025   0.00000  -0.02764  -0.02712  -1.81983
   Y62        0.74569  -0.00002   0.00000  -0.00797  -0.00550   0.74019
   Z62        7.17826   0.00020   0.00000   0.02224   0.02176   7.20002
   X63       -5.13680  -0.00021   0.00000  -0.02268  -0.02216  -5.15896
   Y63        0.17688  -0.00030   0.00000  -0.03421  -0.03179   0.14508
   Z63        7.04431   0.00007   0.00000   0.00785   0.00753   7.05184
   X64       -3.15055  -0.00011   0.00000  -0.01284  -0.01227  -3.16282
   Y64       -1.84190  -0.00025   0.00000  -0.02992  -0.02716  -1.86905
   Z64        8.92057   0.00000   0.00000   0.00159   0.00159   8.92215
   X65        6.23579   0.00011   0.00000   0.01150   0.01188   6.24768
   Y65        4.39775  -0.00010   0.00000  -0.01157  -0.01017   4.38759
   Z65        0.65694   0.00012   0.00000   0.01597   0.01472   0.67167
   X66        6.97090   0.00012   0.00000   0.01029   0.01065   6.98155
   Y66        3.25851  -0.00001   0.00000  -0.00219  -0.00105   3.25746
   Z66       -0.91039   0.00006   0.00000   0.00853   0.00747  -0.90293
   X67        4.34010   0.00006   0.00000   0.00661   0.00698   4.34707
   Y67        4.99738  -0.00016   0.00000  -0.01753  -0.01624   4.98114
   Z67        0.07706   0.00022   0.00000   0.02604   0.02472   0.10179
   X68        7.91546  -0.00001   0.00000   0.00070   0.00107   7.91653
   Y68        6.70346  -0.00001   0.00000  -0.00423  -0.00273   6.70073
   Z68        1.07531   0.00014   0.00000   0.01901   0.01733   1.09264
   X69        8.08759  -0.00015   0.00000  -0.01485  -0.01452   8.07307
   Y69        7.83074   0.00007   0.00000   0.00548   0.00668   7.83742
   Z69       -0.64880   0.00019   0.00000   0.02377   0.02190  -0.62690
   X70        7.14534  -0.00002   0.00000   0.00029   0.00067   7.14601
   Y70        7.92523  -0.00012   0.00000  -0.01605  -0.01431   7.91092
   Z70        2.55739   0.00023   0.00000   0.02858   0.02671   2.58409
   X71        9.82028   0.00006   0.00000   0.00697   0.00735   9.82763
   Y71        6.13895   0.00009   0.00000   0.00473   0.00634   6.14529
   Z71        1.65703   0.00004   0.00000   0.00704   0.00542   1.66245
   X72        9.22428   0.00006   0.00000   0.00842   0.00885   9.23314
   Y72       -4.69489  -0.00020   0.00000  -0.02687  -0.02570  -4.72059
   Z72       -0.82927  -0.00020   0.00000  -0.02339  -0.02310  -0.85237
   X73       10.34523   0.00010   0.00000   0.01224   0.01270  10.35793
   Y73       -4.60424  -0.00025   0.00000  -0.03270  -0.03122  -4.63546
   Z73        0.90064  -0.00020   0.00000  -0.02554  -0.02529   0.87535
   X74       10.12283   0.00002   0.00000   0.00295   0.00337  10.12620
   Y74       -6.03892  -0.00021   0.00000  -0.02603  -0.02508  -6.06400
   Z74       -2.11984  -0.00022   0.00000  -0.02804  -0.02754  -2.14738
   X75        8.90244   0.00007   0.00000   0.01103   0.01142   8.91387
   Y75       -2.11955  -0.00022   0.00000  -0.02354  -0.02259  -2.14215
   Z75       -2.10572  -0.00013   0.00000  -0.01728  -0.01744  -2.12316
   X76        8.51346   0.00014   0.00000   0.01732   0.01772   8.53118
   Y76       -0.67898  -0.00018   0.00000  -0.02561  -0.02442  -0.70340
   Z76       -0.67635  -0.00010   0.00000  -0.01339  -0.01379  -0.69014
   X77       10.54938   0.00008   0.00000   0.00981   0.01018  10.55955
   Y77       -1.53378  -0.00019   0.00000  -0.02472  -0.02395  -1.55773
   Z77       -3.20218  -0.00017   0.00000  -0.01976  -0.02004  -3.22222
         Item               Value     Threshold  Converged?
 Maximum Force            0.000944     0.000450     NO 
 RMS     Force            0.000179     0.000300     YES
 Maximum Displacement     0.081229     0.001800     NO 
 RMS     Displacement     0.019718     0.001200     NO 
 Predicted change in Energy=-7.508766D-04
 GradGradGradGradGradGradGradGradGradGradGradGradGradGradGradGradGradGrad

 Leave Link  103 at Thu Feb  7 23:04:38 2019, MaxMem=   104857600 cpu:              31.5 elap:               1.4
 (Enter /home/xinyan/g16/l9999.exe)
 1\1\GINC-TSE4\Force\RM062X\6-31G(d)\C27H41N3O5S1\STEVETSE\07-Feb-2019\
 0\\#p M062X/6-31G* em=gd3 force int=ultrafine\\Title\\0,1\C,-4.9514,0.
 2398,-0.30939\C,-5.10379,-1.01863,-1.16906\C,-3.75391,-1.44246,-1.7607
 8\C,-2.76464,-1.67402,-0.6228\C,-2.56,-0.38232,0.2199\C,-3.91707,0.039
 77,0.80268\H,-3.85526,-2.34686,-2.37167\H,-5.50283,-1.83724,-0.55591\H
 ,-5.82048,-0.84721,-1.97911\H,-4.62422,1.0708,-0.95025\H,-5.92031,0.52
 443,0.11449\H,-3.14202,-2.4636,0.03332\H,-2.27844,0.39501,-0.50655\H,-
 4.25991,-0.7214,1.51493\H,-3.76654,0.97467,1.35564\H,-3.4008,-0.63281,
 -2.41415\N,-1.4301,-2.1344,-1.07342\C,-0.76309,-1.47295,-2.04747\C,-0.
 73392,-2.95059,-0.24719\C,0.58734,-1.58722,-2.21324\H,-1.3583,-0.82333
 ,-2.67615\C,0.61845,-3.11205,-0.34757\H,-1.30823,-3.42736,0.53995\C,1.
 35219,-2.35322,-1.2901\H,1.06284,-1.03528,-3.01331\H,1.10758,-3.73314,
 0.38959\N,2.6925,-2.34399,-1.29251\C,3.44084,-2.90436,-0.15984\H,3.315
 96,-3.99002,-0.11195\H,3.06572,-2.45965,0.77255\C,3.46281,-1.29871,-1.
 98405\H,3.71143,-1.62357,-3.00166\H,2.87879,-0.37547,-2.02477\N,-1.437
 07,-0.45932,1.12884\S,-1.46702,-1.41294,2.38824\O,-2.55216,-2.41852,2.
 35728\O,-0.10755,-1.97948,2.60417\C,-0.91956,2.67383,0.08923\C,-0.2944
 8,1.98165,-0.95503\C,-0.87744,1.96126,-2.22016\C,-2.10246,2.5892,-2.45
 015\C,-2.74295,3.24697,-1.40295\C,-2.14795,3.28931,-0.1441\H,0.62307,1
 .42897,-0.75942\H,-0.37371,1.44736,-3.03597\H,-2.55593,2.56622,-3.4366
 6\H,-3.70416,3.72681,-1.5616\H,-2.64648,3.79874,0.67734\O,0.25705,1.51
 778,1.87047\H,-0.3414,0.78723,1.52588\C,2.36395,0.21217,1.3638\O,2.000
 89,-0.15802,0.2612\O,2.13525,-0.46701,2.47804\H,1.37702,-1.10024,2.350
 98\C,3.18158,1.46131,1.59632\H,2.69546,2.0058,2.41188\H,4.17258,1.1609
 1,1.96419\C,-0.28864,2.73809,1.46375\H,-1.03757,3.11074,2.18167\H,0.53
 227,3.47121,1.45666\C,-1.73239,-0.36671,3.81732\H,-0.94866,0.3946,3.79
 857\H,-2.71828,0.0936,3.72769\H,-1.6672,-0.97469,4.72056\C,3.29984,2.3
 2719,0.34764\H,3.68884,1.72433,-0.48176\H,2.29668,2.6445,0.04078\C,4.1
 8868,3.54732,0.56903\H,4.27977,4.14385,-0.34333\H,3.78115,4.19385,1.35
 331\H,5.19667,3.24859,0.87686\C,4.88128,-2.48443,-0.43883\H,5.47446,-2
 .43646,0.4766\H,5.35677,-3.19566,-1.12177\C,4.71097,-1.12162,-1.1143\H
 ,4.50513,-0.3593,-0.35791\H,5.58249,-0.81164,-1.69452\\Version=ES64L-G
 16RevA.03\State=1-A\HF=-1991.3867747\RMSD=5.424e-09\RMSF=1.785e-04\Dip
 ole=0.6188894,-0.0390495,-2.6106948\Quadrupole=10.5560815,-5.3645265,-
 5.191555,-9.6863222,0.1314627,9.3607619\PG=C01 [X(C27H41N3O5S1)]\\@


 Time has a wonderful way of weeding out the trivial.
                                -- Richard Ben Sapir
 Job cpu time:       0 days  1 hours 20 minutes 23.5 seconds.
 Elapsed time:       0 days  0 hours  3 minutes 23.0 seconds.
 File lengths (MBytes):  RWF=    216 Int=      0 D2E=      0 Chk=     25 Scr=      1
 Normal termination of Gaussian 16 at Thu Feb  7 23:04:38 2019.
