 Entering Gaussian System, Link 0=g16
 Input=C27N3H41SO5-39.gjf
 Output=C27N3H41SO5-39.log
 Initial command:
 /home/xinyan/g16/l1.exe "/local/home/tmp/Gau-16831.inp" -scrdir="/local/home/tmp/"
 Entering Link 1 = /home/xinyan/g16/l1.exe PID=     16832.
  
 Copyright (c) 1988,1990,1992,1993,1995,1998,2003,2009,2016,
            Gaussian, Inc.  All Rights Reserved.
  
 This is part of the Gaussian(R) 16 program.  It is based on
 the Gaussian(R) 09 system (copyright 2009, Gaussian, Inc.),
 the Gaussian(R) 03 system (copyright 2003, Gaussian, Inc.),
 the Gaussian(R) 98 system (copyright 1998, Gaussian, Inc.),
 the Gaussian(R) 94 system (copyright 1995, Gaussian, Inc.),
 the Gaussian 92(TM) system (copyright 1992, Gaussian, Inc.),
 the Gaussian 90(TM) system (copyright 1990, Gaussian, Inc.),
 the Gaussian 88(TM) system (copyright 1988, Gaussian, Inc.),
 the Gaussian 86(TM) system (copyright 1986, Carnegie Mellon
 University), and the Gaussian 82(TM) system (copyright 1983,
 Carnegie Mellon University). Gaussian is a federally registered
 trademark of Gaussian, Inc.
  
 This software contains proprietary and confidential information,
 including trade secrets, belonging to Gaussian, Inc.
  
 This software is provided under written license and may be
 used, copied, transmitted, or stored only in accord with that
 written license.
  
 The following legend is applicable only to US Government
 contracts under FAR:
  
                    RESTRICTED RIGHTS LEGEND
  
 Use, reproduction and disclosure by the US Government is
 subject to restrictions as set forth in subparagraphs (a)
 and (c) of the Commercial Computer Software - Restricted
 Rights clause in FAR 52.227-19.
  
 Gaussian, Inc.
 340 Quinnipiac St., Bldg. 40, Wallingford CT 06492
  
  
 ---------------------------------------------------------------
 Warning -- This program may not be used in any manner that
 competes with the business of Gaussian, Inc. or will provide
 assistance to any competitor of Gaussian, Inc.  The licensee
 of this program is prohibited from giving any competitor of
 Gaussian, Inc. access to this program.  By using this program,
 the user acknowledges that Gaussian, Inc. is engaged in the
 business of creating and licensing software in the field of
 computational chemistry and represents and warrants to the
 licensee that it is not a competitor of Gaussian, Inc. and that
 it will not use this program in any manner prohibited above.
 ---------------------------------------------------------------
  

 Cite this work as:
 Gaussian 16, Revision A.03,
 M. J. Frisch, G. W. Trucks, H. B. Schlegel, G. E. Scuseria, 
 M. A. Robb, J. R. Cheeseman, G. Scalmani, V. Barone, 
 G. A. Petersson, H. Nakatsuji, X. Li, M. Caricato, A. V. Marenich, 
 J. Bloino, B. G. Janesko, R. Gomperts, B. Mennucci, H. P. Hratchian, 
 J. V. Ortiz, A. F. Izmaylov, J. L. Sonnenberg, D. Williams-Young, 
 F. Ding, F. Lipparini, F. Egidi, J. Goings, B. Peng, A. Petrone, 
 T. Henderson, D. Ranasinghe, V. G. Zakrzewski, J. Gao, N. Rega, 
 G. Zheng, W. Liang, M. Hada, M. Ehara, K. Toyota, R. Fukuda, 
 J. Hasegawa, M. Ishida, T. Nakajima, Y. Honda, O. Kitao, H. Nakai, 
 T. Vreven, K. Throssell, J. A. Montgomery, Jr., J. E. Peralta, 
 F. Ogliaro, M. J. Bearpark, J. J. Heyd, E. N. Brothers, K. N. Kudin, 
 V. N. Staroverov, T. A. Keith, R. Kobayashi, J. Normand, 
 K. Raghavachari, A. P. Rendell, J. C. Burant, S. S. Iyengar, 
 J. Tomasi, M. Cossi, J. M. Millam, M. Klene, C. Adamo, R. Cammi, 
 J. W. Ochterski, R. L. Martin, K. Morokuma, O. Farkas, 
 J. B. Foresman, and D. J. Fox, Gaussian, Inc., Wallingford CT, 2016.
 
 ******************************************
 Gaussian 16:  ES64L-G16RevA.03 25-Dec-2016
                 7-Feb-2019 
 ******************************************
 %nproc=24
 Will use up to   24 processors via shared memory.
 ------------------------------------------
 #p M062X/6-31G* em=gd3 force int=ultrafine
 ------------------------------------------
 1/10=7,30=1,38=1/1,3;
 2/12=2,17=6,18=5,40=1/2;
 3/5=1,6=6,7=1,11=2,25=1,30=1,71=1,74=-55,75=-5,124=31/1,2,3;
 4//1;
 5/5=2,38=5/2;
 6/7=2,8=2,9=2,10=2,28=1/1;
 7/29=1/1,2,3,16;
 1/10=7,30=1/3;
 99//99;
 Leave Link    1 at Thu Feb  7 10:39:33 2019, MaxMem=           0 cpu:               2.5 elap:               0.1
 (Enter /home/xinyan/g16/l101.exe)
 -----
 Title
 -----
 Symbolic Z-matrix:
 Charge =  0 Multiplicity = 1
 C                    -4.98677   0.23182  -0.42746 
 C                    -5.13305  -1.04708  -1.25713 
 C                    -3.78045  -1.48002  -1.83538 
 C                    -2.79682  -1.70124  -0.69067 
 C                    -2.62093  -0.40526   0.13725 
 C                    -3.9685    0.05389   0.70205 
 H                    -3.87453  -2.39253  -2.43357 
 H                    -5.5318   -1.85206  -0.62592 
 H                    -5.84793  -0.89566  -2.07187 
 H                    -4.65407   1.04885  -1.08217 
 H                    -5.95659   0.5256   -0.01332 
 H                    -3.18023  -2.48654  -0.03105 
 H                    -2.27426   0.37042  -0.55772 
 H                    -4.3314   -0.68106   1.4285 
 H                    -3.80841   1.00173   1.22817 
 H                    -3.41927  -0.68044  -2.49603 
 N                    -1.45625  -2.15223  -1.11947 
 C                    -0.76893  -1.46875  -2.07358 
 C                    -0.76168  -2.96357  -0.27851 
 C                     0.58419  -1.54597  -2.19262 
 H                    -1.35809  -0.83095  -2.72006 
 C                     0.59287  -3.07951  -0.32473 
 H                    -1.34988  -3.47351   0.47653 
 C                     1.34255  -2.28214  -1.23309 
 H                     1.07362  -0.97448  -2.96993 
 H                     1.07616  -3.69593   0.41989 
 N                     2.66878  -2.23696  -1.19031 
 C                     3.39912  -2.75499  -0.02221 
 H                     3.26899  -3.83736   0.06628 
 H                     3.01291  -2.2442    0.8713 
 C                     3.43287  -1.17349  -1.86477 
 H                     3.70737  -1.49619  -2.87686 
 H                     2.82693  -0.26545  -1.89797 
 N                    -1.54437  -0.51495   1.10573 
 S                    -1.55816  -1.41152   2.46922 
 O                    -2.7832   -2.21334   2.44255 
 O                    -0.27834  -2.10799   2.59994 
 C                    -0.68158   2.43295   0.15469 
 C                    -0.18018   1.87397  -1.02915 
 C                    -0.90882   1.97132  -2.21439 
 C                    -2.15068   2.60578  -2.24128 
 C                    -2.66115   3.15241  -1.06542 
 C                    -1.9273    3.06646   0.11739 
 H                     0.75748   1.32125  -0.97877 
 H                    -0.49744   1.5513   -3.13024 
 H                    -2.71215   2.68005  -3.16851 
 H                    -3.62794   3.64826  -1.0691 
 H                    -2.33187   3.49879   1.03047 
 O                     0.54823   1.12846   1.8846 
 H                    -0.64252  -0.03676   0.95424 
 C                     1.88991   0.52151   1.37658 
 O                     1.72422  -0.01966   0.21478 
 O                     2.14185  -0.38945   2.42992 
 H                     1.4472   -1.06786   2.34876 
 C                     2.9801    1.6072    1.50213 
 H                     2.75823   2.26506   2.3522 
 H                     3.90486   1.07828   1.76712 
 C                     0.09803   2.38671   1.46661 
 H                    -0.57234   2.76078   2.25502 
 H                     0.92849   3.10519   1.4125 
 C                    -1.61959  -0.22676   3.79358 
 H                    -0.73739   0.40772   3.66321 
 H                    -2.54591   0.34273   3.70459 
 H                    -1.58347  -0.77536   4.73613 
 C                     3.2243    2.41638   0.23055 
 H                     3.5099    1.72952  -0.57437 
 H                     2.30064   2.89533  -0.11533 
 C                     4.30339   3.47835   0.42923 
 H                     4.49859   4.03782  -0.49095 
 H                     4.00605   4.19689   1.20128 
 H                     5.24543   3.02229   0.75372 
 C                     4.83959  -2.34529  -0.30468 
 H                     5.43558  -2.30379   0.60886 
 H                     5.30953  -3.0526   -0.99735 
 C                     4.6528   -0.97758  -0.96246 
 H                     4.38455  -0.24669  -0.19443 
 H                     5.52893  -0.62788  -1.51276 
 
 ITRead=  0  0  0  0  0  0  0  0  0  0  0  0  0  0  0  0  0  0  0  0
 ITRead=  0  0  0  0  0  0  0  0  0  0  0  0  0  0  0  0  0  0  0  0
 ITRead=  0  0  0  0  0  0  0  0  0  0  0  0  0  0  0  0  0  0  0  0
 ITRead=  0  0  0  0  0  0  0  0  0  0  0  0  0  0  0  0  0
 MicOpt= -1 -1 -1 -1 -1 -1 -1 -1 -1 -1 -1 -1 -1 -1 -1 -1 -1 -1 -1 -1
 MicOpt= -1 -1 -1 -1 -1 -1 -1 -1 -1 -1 -1 -1 -1 -1 -1 -1 -1 -1 -1 -1
 MicOpt= -1 -1 -1 -1 -1 -1 -1 -1 -1 -1 -1 -1 -1 -1 -1 -1 -1 -1 -1 -1
 MicOpt= -1 -1 -1 -1 -1 -1 -1 -1 -1 -1 -1 -1 -1 -1 -1 -1 -1
 NAtoms=     77 NQM=       77 NQMF=       0 NMMI=      0 NMMIF=      0
                NMic=       0 NMicF=      0.
                    Isotopes and Nuclear Properties:
 (Nuclear quadrupole moments (NQMom) in fm**2, nuclear magnetic moments (NMagM)
  in nuclear magnetons)

  Atom         1           2           3           4           5           6           7           8           9          10
 IAtWgt=          12          12          12          12          12          12           1           1           1           1
 AtmWgt=  12.0000000  12.0000000  12.0000000  12.0000000  12.0000000  12.0000000   1.0078250   1.0078250   1.0078250   1.0078250
 NucSpn=           0           0           0           0           0           0           1           1           1           1
 AtZEff=  -0.0000000  -0.0000000  -0.0000000  -0.0000000  -0.0000000  -0.0000000  -0.0000000  -0.0000000  -0.0000000  -0.0000000
 NQMom=    0.0000000   0.0000000   0.0000000   0.0000000   0.0000000   0.0000000   0.0000000   0.0000000   0.0000000   0.0000000
 NMagM=    0.0000000   0.0000000   0.0000000   0.0000000   0.0000000   0.0000000   2.7928460   2.7928460   2.7928460   2.7928460
 AtZNuc=   6.0000000   6.0000000   6.0000000   6.0000000   6.0000000   6.0000000   1.0000000   1.0000000   1.0000000   1.0000000

  Atom        11          12          13          14          15          16          17          18          19          20
 IAtWgt=           1           1           1           1           1           1          14          12          12          12
 AtmWgt=   1.0078250   1.0078250   1.0078250   1.0078250   1.0078250   1.0078250  14.0030740  12.0000000  12.0000000  12.0000000
 NucSpn=           1           1           1           1           1           1           2           0           0           0
 AtZEff=  -0.0000000  -0.0000000  -0.0000000  -0.0000000  -0.0000000  -0.0000000  -0.0000000  -0.0000000  -0.0000000  -0.0000000
 NQMom=    0.0000000   0.0000000   0.0000000   0.0000000   0.0000000   0.0000000   2.0440000   0.0000000   0.0000000   0.0000000
 NMagM=    2.7928460   2.7928460   2.7928460   2.7928460   2.7928460   2.7928460   0.4037610   0.0000000   0.0000000   0.0000000
 AtZNuc=   1.0000000   1.0000000   1.0000000   1.0000000   1.0000000   1.0000000   7.0000000   6.0000000   6.0000000   6.0000000

  Atom        21          22          23          24          25          26          27          28          29          30
 IAtWgt=           1          12           1          12           1           1          14          12           1           1
 AtmWgt=   1.0078250  12.0000000   1.0078250  12.0000000   1.0078250   1.0078250  14.0030740  12.0000000   1.0078250   1.0078250
 NucSpn=           1           0           1           0           1           1           2           0           1           1
 AtZEff=  -0.0000000  -0.0000000  -0.0000000  -0.0000000  -0.0000000  -0.0000000  -0.0000000  -0.0000000  -0.0000000  -0.0000000
 NQMom=    0.0000000   0.0000000   0.0000000   0.0000000   0.0000000   0.0000000   2.0440000   0.0000000   0.0000000   0.0000000
 NMagM=    2.7928460   0.0000000   2.7928460   0.0000000   2.7928460   2.7928460   0.4037610   0.0000000   2.7928460   2.7928460
 AtZNuc=   1.0000000   6.0000000   1.0000000   6.0000000   1.0000000   1.0000000   7.0000000   6.0000000   1.0000000   1.0000000

  Atom        31          32          33          34          35          36          37          38          39          40
 IAtWgt=          12           1           1          14          32          16          16          12          12          12
 AtmWgt=  12.0000000   1.0078250   1.0078250  14.0030740  31.9720718  15.9949146  15.9949146  12.0000000  12.0000000  12.0000000
 NucSpn=           0           1           1           2           0           0           0           0           0           0
 AtZEff=  -0.0000000  -0.0000000  -0.0000000  -0.0000000  -0.0000000  -0.0000000  -0.0000000  -0.0000000  -0.0000000  -0.0000000
 NQMom=    0.0000000   0.0000000   0.0000000   2.0440000   0.0000000   0.0000000   0.0000000   0.0000000   0.0000000   0.0000000
 NMagM=    0.0000000   2.7928460   2.7928460   0.4037610   0.0000000   0.0000000   0.0000000   0.0000000   0.0000000   0.0000000
 AtZNuc=   6.0000000   1.0000000   1.0000000   7.0000000  16.0000000   8.0000000   8.0000000   6.0000000   6.0000000   6.0000000

  Atom        41          42          43          44          45          46          47          48          49          50
 IAtWgt=          12          12          12           1           1           1           1           1          16           1
 AtmWgt=  12.0000000  12.0000000  12.0000000   1.0078250   1.0078250   1.0078250   1.0078250   1.0078250  15.9949146   1.0078250
 NucSpn=           0           0           0           1           1           1           1           1           0           1
 AtZEff=  -0.0000000  -0.0000000  -0.0000000  -0.0000000  -0.0000000  -0.0000000  -0.0000000  -0.0000000  -0.0000000  -0.0000000
 NQMom=    0.0000000   0.0000000   0.0000000   0.0000000   0.0000000   0.0000000   0.0000000   0.0000000   0.0000000   0.0000000
 NMagM=    0.0000000   0.0000000   0.0000000   2.7928460   2.7928460   2.7928460   2.7928460   2.7928460   0.0000000   2.7928460
 AtZNuc=   6.0000000   6.0000000   6.0000000   1.0000000   1.0000000   1.0000000   1.0000000   1.0000000   8.0000000   1.0000000

  Atom        51          52          53          54          55          56          57          58          59          60
 IAtWgt=          12          16          16           1          12           1           1          12           1           1
 AtmWgt=  12.0000000  15.9949146  15.9949146   1.0078250  12.0000000   1.0078250   1.0078250  12.0000000   1.0078250   1.0078250
 NucSpn=           0           0           0           1           0           1           1           0           1           1
 AtZEff=  -0.0000000  -0.0000000  -0.0000000  -0.0000000  -0.0000000  -0.0000000  -0.0000000  -0.0000000  -0.0000000  -0.0000000
 NQMom=    0.0000000   0.0000000   0.0000000   0.0000000   0.0000000   0.0000000   0.0000000   0.0000000   0.0000000   0.0000000
 NMagM=    0.0000000   0.0000000   0.0000000   2.7928460   0.0000000   2.7928460   2.7928460   0.0000000   2.7928460   2.7928460
 AtZNuc=   6.0000000   8.0000000   8.0000000   1.0000000   6.0000000   1.0000000   1.0000000   6.0000000   1.0000000   1.0000000

  Atom        61          62          63          64          65          66          67          68          69          70
 IAtWgt=          12           1           1           1          12           1           1          12           1           1
 AtmWgt=  12.0000000   1.0078250   1.0078250   1.0078250  12.0000000   1.0078250   1.0078250  12.0000000   1.0078250   1.0078250
 NucSpn=           0           1           1           1           0           1           1           0           1           1
 AtZEff=  -0.0000000  -0.0000000  -0.0000000  -0.0000000  -0.0000000  -0.0000000  -0.0000000  -0.0000000  -0.0000000  -0.0000000
 NQMom=    0.0000000   0.0000000   0.0000000   0.0000000   0.0000000   0.0000000   0.0000000   0.0000000   0.0000000   0.0000000
 NMagM=    0.0000000   2.7928460   2.7928460   2.7928460   0.0000000   2.7928460   2.7928460   0.0000000   2.7928460   2.7928460
 AtZNuc=   6.0000000   1.0000000   1.0000000   1.0000000   6.0000000   1.0000000   1.0000000   6.0000000   1.0000000   1.0000000

  Atom        71          72          73          74          75          76          77
 IAtWgt=           1          12           1           1          12           1           1
 AtmWgt=   1.0078250  12.0000000   1.0078250   1.0078250  12.0000000   1.0078250   1.0078250
 NucSpn=           1           0           1           1           0           1           1
 AtZEff=  -0.0000000  -0.0000000  -0.0000000  -0.0000000  -0.0000000  -0.0000000  -0.0000000
 NQMom=    0.0000000   0.0000000   0.0000000   0.0000000   0.0000000   0.0000000   0.0000000
 NMagM=    2.7928460   0.0000000   2.7928460   2.7928460   0.0000000   2.7928460   2.7928460
 AtZNuc=   1.0000000   6.0000000   1.0000000   1.0000000   6.0000000   1.0000000   1.0000000
 Leave Link  101 at Thu Feb  7 10:39:33 2019, MaxMem=   104857600 cpu:               5.7 elap:               0.3
 (Enter /home/xinyan/g16/l103.exe)

 GradGradGradGradGradGradGradGradGradGradGradGradGradGradGradGradGradGrad
 Berny optimization.
 Initialization pass.
 Trust Radius=3.00D-01 FncErr=1.00D-07 GrdErr=1.00D-07 EigMax=2.50D+02 EigMin=1.00D-04
 Number of steps in this run=      2 maximum allowed number of steps=      2.
 GradGradGradGradGradGradGradGradGradGradGradGradGradGradGradGradGradGrad

 Leave Link  103 at Thu Feb  7 10:39:34 2019, MaxMem=   104857600 cpu:               1.6 elap:               0.1
 (Enter /home/xinyan/g16/l202.exe)
 Stoichiometry    C27H41N3O5S
 Framework group  C1[X(C27H41N3O5S)]
 Deg. of freedom   225
 Full point group                 C1      NOp   1
 Largest Abelian subgroup         C1      NOp   1
 Largest concise Abelian subgroup C1      NOp   1
                         Standard orientation:                         
 ---------------------------------------------------------------------
 Center     Atomic      Atomic             Coordinates (Angstroms)
 Number     Number       Type             X           Y           Z
 ---------------------------------------------------------------------
      1          6           0       -4.865248    0.506396   -0.557258
      2          6           0       -5.035498   -0.791236   -1.352557
      3          6           0       -3.694156   -1.255645   -1.932612
      4          6           0       -2.701942   -1.460021   -0.792187
      5          6           0       -2.501893   -0.145731    0.000640
      6          6           0       -3.838018    0.344472    0.566533
      7          1           0       -3.805402   -2.181807   -2.506375
      8          1           0       -5.437785   -1.574860   -0.697179
      9          1           0       -5.756561   -0.651617   -2.163950
     10          1           0       -4.529090    1.302295   -1.235796
     11          1           0       -5.827205    0.822733   -0.141399
     12          1           0       -3.088365   -2.223442   -0.109061
     13          1           0       -2.152676    0.607637   -0.717223
     14          1           0       -4.202649   -0.367179    1.314981
     15          1           0       -3.661056    1.303292    1.066713
     16          1           0       -3.329795   -0.477697   -2.616918
     17          7           0       -1.371358   -1.938524   -1.222271
     18          6           0       -0.685253   -1.288172   -2.200116
     19          6           0       -0.678447   -2.736878   -0.367625
     20          6           0        0.665561   -1.385343   -2.330218
     21          1           0       -1.272958   -0.659669   -2.856943
     22          6           0        0.674048   -2.870921   -0.423959
     23          1           0       -1.265301   -3.220059    0.405836
     24          6           0        1.424362   -2.106344   -1.359581
     25          1           0        1.154191   -0.839965   -3.126557
     26          1           0        1.157138   -3.474232    0.331448
     27          7           0        2.751407   -2.076716   -1.330788
     28          6           0        3.486952   -2.574014   -0.156958
     29          1           0        3.344428   -3.652071   -0.039612
     30          1           0        3.115982   -2.035888    0.726913
     31          6           0        3.521732   -1.040384   -2.039530
     32          1           0        3.782133   -1.392108   -3.045658
     33          1           0        2.926689   -0.125958   -2.090042
     34          7           0       -1.417149   -0.244263    0.961155
     35         16           0       -1.428341   -1.105660    2.347158
     36          8           0       -2.663341   -1.892483    2.352806
     37          8           0       -0.155930   -1.814568    2.483240
     38          6           0       -0.527753    2.667479   -0.073123
     39          6           0       -0.045097    2.072363   -1.247098
     40          6           0       -0.784279    2.148693   -2.427339
     41          6           0       -2.018460    2.797778   -2.458414
     42          6           0       -2.510416    3.380460   -1.292013
     43          6           0       -1.765908    3.315398   -0.114542
     44          1           0        0.886160    1.509393   -1.191689
     45          1           0       -0.387250    1.700418   -3.336102
     46          1           0       -2.588201    2.855498   -3.381768
     47          1           0       -3.471032    3.888134   -1.299006
     48          1           0       -2.156005    3.775823    0.791072
     49          8           0        0.703147    1.392050    1.677558
     50          1           0       -0.511051    0.218584    0.788798
     51          6           0        2.032134    0.755622    1.172255
     52          8           0        1.848222    0.187229    0.026304
     53          8           0        2.283367   -0.131368    2.246022
     54          1           0        1.579661   -0.802862    2.188924
     55          6           0        3.136775    1.830404    1.259506
     56          1           0        2.931497    2.512377    2.094610
     57          1           0        4.057568    1.296839    1.528962
     58          6           0        0.264285    2.644818    1.231954
     59          1           0       -0.393538    3.047169    2.017000
     60          1           0        1.102926    3.351227    1.151497
     61          6           0       -1.461994    0.113041    3.641374
     62          1           0       -0.573413    0.732898    3.486329
     63          1           0       -2.382091    0.691651    3.546832
     64          1           0       -1.423209   -0.411845    4.597228
     65          6           0        3.378191    2.603893   -0.034617
     66          1           0        3.647286    1.893280   -0.824463
     67          1           0        2.457078    3.085439   -0.383668
     68          6           0        4.472172    3.656961    0.126450
     69          1           0        4.665035    4.190382   -0.809555
     70          1           0        4.191400    4.398554    0.882744
     71          1           0        5.411732    3.197522    0.453357
     72          6           0        4.929454   -2.189707   -0.463703
     73          1           0        5.534997   -2.132484    0.442677
     74          1           0        5.383735   -2.920221   -1.142600
     75          6           0        4.752921   -0.836917   -1.154347
     76          1           0        4.501347   -0.083446   -0.402669
     77          1           0        5.627744   -0.512318   -1.721837
 ---------------------------------------------------------------------
 Rotational constants (GHZ):           0.1518804           0.0986522           0.0893090
 Leave Link  202 at Thu Feb  7 10:39:34 2019, MaxMem=   104857600 cpu:               2.5 elap:               0.1
 (Enter /home/xinyan/g16/l301.exe)
 Standard basis: 6-31G(d) (6D, 7F)
 Ernie: Thresh=  0.10000D-02 Tol=  0.10000D-05 Strict=F.
 There are   626 symmetry adapted cartesian basis functions of A   symmetry.
 There are   626 symmetry adapted basis functions of A   symmetry.
   626 basis functions,  1196 primitive gaussians,   626 cartesian basis functions
   140 alpha electrons      140 beta electrons
       nuclear repulsion energy      4959.6336452366 Hartrees.
 IExCor= 4336 DFT=T Ex+Corr=M062X ExCW=0 ScaHFX=  0.540000
 ScaDFX=  1.000000  1.000000  1.000000  1.000000 ScalE2=  1.000000  1.000000
 IRadAn=      5 IRanWt=     -1 IRanGd=            0 ICorTp=0 IEmpDi=131
 NAtoms=   77 NActive=   77 NUniq=   77 SFac= 1.00D+00 NAtFMM=   60 NAOKFM=T Big=T
 Integral buffers will be    131072 words long.
 Raffenetti 2 integral format.
 Two-electron integral symmetry is turned on.
 R6Disp:  Grimme-D3 Dispersion energy=       -0.0107130433 Hartrees.
 Nuclear repulsion after empirical dispersion term =     4959.6229321932 Hartrees.
 Leave Link  301 at Thu Feb  7 10:39:34 2019, MaxMem=   104857600 cpu:               3.0 elap:               0.2
 (Enter /home/xinyan/g16/l302.exe)
 NPDir=0 NMtPBC=     1 NCelOv=     1 NCel=       1 NClECP=     1 NCelD=      1
         NCelK=      1 NCelE2=     1 NClLst=     1 CellRange=     0.0.
 One-electron integrals computed using PRISM.
 One-electron integral symmetry used in STVInt
 PrsmSu:  requested number of processors reduced to:  23 ShMem   1 Linda.
 NBasis=   626 RedAO= T EigKep=  4.37D-04  NBF=   626
 NBsUse=   626 1.00D-06 EigRej= -1.00D+00 NBFU=   626
 Precomputing XC quadrature grid using
 IXCGrd= 4 IRadAn=           5 IRanWt=          -1 IRanGd=           0 AccXCQ= 0.00D+00.
 Generated NRdTot=       0 NPtTot=           0 NUsed=           0 NTot=          32
 NSgBfM=   615   614   614   615   615 MxSgAt=    77 MxSgA2=    77.
 Leave Link  302 at Thu Feb  7 10:39:38 2019, MaxMem=   104857600 cpu:             102.7 elap:               4.5
 (Enter /home/xinyan/g16/l303.exe)
 DipDrv:  MaxL=1.
 Leave Link  303 at Thu Feb  7 10:39:39 2019, MaxMem=   104857600 cpu:               6.3 elap:               0.3
 (Enter /home/xinyan/g16/l401.exe)
 ExpMin= 1.17D-01 ExpMax= 2.19D+04 ExpMxC= 3.30D+03 IAcc=3 IRadAn=         5 AccDes= 0.00D+00
 Harris functional with IExCor= 1009 and IRadAn=       5 diagonalized for initial guess.
 HarFok:  IExCor= 1009 AccDes= 0.00D+00 IRadAn=         5 IDoV= 1 UseB2=F ITyADJ=14
 ICtDFT=  3500011 ScaDFX=  1.000000  1.000000  1.000000  1.000000
 FoFCou: FMM=F IPFlag=           0 FMFlag=      100000 FMFlg1=        2001
         NFxFlg=           0 DoJE=T BraDBF=F KetDBF=T FulRan=T
         wScrn=  0.000000 ICntrl=       500 IOpCl=  0 I1Cent=   200000004 NGrid=           0
         NMat0=    1 NMatS0=      1 NMatT0=    0 NMatD0=    1 NMtDS0=    0 NMtDT0=    0
 Petite list used in FoFCou.
 Harris En= -1990.53544755669    
 JPrj=0 DoOrth=F DoCkMO=F.
 Leave Link  401 at Thu Feb  7 10:39:43 2019, MaxMem=   104857600 cpu:              99.5 elap:               4.2
 (Enter /home/xinyan/g16/l502.exe)
 Integral symmetry usage will be decided dynamically.
 Closed shell SCF:
 Using DIIS extrapolation, IDIIS=  1040.
 NGot=   104857600 LenX=   104051656 LenY=   103659154
 Requested convergence on RMS density matrix=1.00D-08 within 128 cycles.
 Requested convergence on MAX density matrix=1.00D-06.
 Requested convergence on             energy=1.00D-06.
 No special actions if energy rises.
 Fock matrices will be formed incrementally for  20 cycles.
 Integral accuracy reduced to 1.0D-05 until final iterations.

 Cycle   1  Pass 0  IDiag  1:
 FoFJK:  IHMeth= 1 ICntrl=       0 DoSepK=F KAlg= 0 I1Cent=           0 FoldK=F
 IRaf= 990000000 NMat=       1 IRICut=       1 DoRegI=T DoRafI=F ISym2E= 0 IDoP0=0 IntGTp=1.
 FoFCou: FMM=T IPFlag=           0 FMFlag=      100000 FMFlg1=        2001
         NFxFlg=           0 DoJE=F BraDBF=F KetDBF=F FulRan=T
         wScrn=  0.000000 ICntrl=         0 IOpCl=  0 I1Cent=           0 NGrid=           0
         NMat0=    1 NMatS0=      1 NMatT0=    0 NMatD0=    1 NMtDS0=    0 NMtDT0=    0
 Symmetry not used in FoFCou.
 FMM levels:  10  Number of levels for PrismC:   9
 E= -1990.28720281189    
 DIIS: error= 2.52D-02 at cycle   1 NSaved=   1.
 NSaved= 1 IEnMin= 1 EnMin= -1990.28720281189     IErMin= 1 ErrMin= 2.52D-02
 ErrMax= 2.52D-02  0.00D+00 EMaxC= 1.00D-01 BMatC= 1.25D+00 BMatP= 1.25D+00
 IDIUse=3 WtCom= 7.48D-01 WtEn= 2.52D-01
 Coeff-Com:  0.100D+01
 Coeff-En:   0.100D+01
 Coeff:      0.100D+01
 Gap=     0.358 Goal=   None    Shift=    0.000
 GapD=    0.358 DampG=1.000 DampE=0.500 DampFc=0.5000 IDamp=-1.
 Damping current iteration by 5.00D-01
 RMSDP=3.50D-03 MaxDP=3.47D-01              OVMax= 1.98D-01

 Cycle   2  Pass 0  IDiag  1:
 RMSU=  1.74D-03    CP:  9.89D-01
 E= -1990.80260967543     Delta-E=       -0.515406863540 Rises=F Damp=T
 DIIS: error= 8.46D-03 at cycle   2 NSaved=   2.
 NSaved= 2 IEnMin= 2 EnMin= -1990.80260967543     IErMin= 2 ErrMin= 8.46D-03
 ErrMax= 8.46D-03  0.00D+00 EMaxC= 1.00D-01 BMatC= 9.40D-02 BMatP= 1.25D+00
 IDIUse=3 WtCom= 9.15D-01 WtEn= 8.46D-02
 Coeff-Com: -0.245D-01 0.102D+01
 Coeff-En:   0.000D+00 0.100D+01
 Coeff:     -0.224D-01 0.102D+01
 Gap=     0.259 Goal=   None    Shift=    0.000
 RMSDP=8.73D-04 MaxDP=7.76D-02 DE=-5.15D-01 OVMax= 1.30D-01

 Cycle   3  Pass 0  IDiag  1:
 RMSU=  8.60D-04    CP:  9.82D-01  9.32D-01
 E= -1991.31271852778     Delta-E=       -0.510108852348 Rises=F Damp=F
 DIIS: error= 8.74D-03 at cycle   3 NSaved=   3.
 NSaved= 3 IEnMin= 3 EnMin= -1991.31271852778     IErMin= 2 ErrMin= 8.46D-03
 ErrMax= 8.74D-03  0.00D+00 EMaxC= 1.00D-01 BMatC= 5.19D-02 BMatP= 9.40D-02
 IDIUse=3 WtCom= 9.13D-01 WtEn= 8.74D-02
 Coeff-Com: -0.699D-01 0.445D+00 0.625D+00
 Coeff-En:   0.000D+00 0.000D+00 0.100D+01
 Coeff:     -0.638D-01 0.406D+00 0.658D+00
 Gap=     0.229 Goal=   None    Shift=    0.000
 RMSDP=5.29D-04 MaxDP=3.70D-02 DE=-5.10D-01 OVMax= 6.41D-02

 Cycle   4  Pass 0  IDiag  1:
 RMSU=  3.44D-04    CP:  9.85D-01  1.04D+00  5.94D-01
 E= -1991.34413411765     Delta-E=       -0.031415589865 Rises=F Damp=F
 DIIS: error= 4.12D-03 at cycle   4 NSaved=   4.
 NSaved= 4 IEnMin= 4 EnMin= -1991.34413411765     IErMin= 4 ErrMin= 4.12D-03
 ErrMax= 4.12D-03  0.00D+00 EMaxC= 1.00D-01 BMatC= 1.32D-02 BMatP= 5.19D-02
 IDIUse=3 WtCom= 9.59D-01 WtEn= 4.12D-02
 Coeff-Com: -0.269D-01 0.888D-01 0.362D+00 0.576D+00
 Coeff-En:   0.000D+00 0.000D+00 0.218D+00 0.782D+00
 Coeff:     -0.258D-01 0.851D-01 0.356D+00 0.584D+00
 Gap=     0.226 Goal=   None    Shift=    0.000
 RMSDP=2.15D-04 MaxDP=1.20D-02 DE=-3.14D-02 OVMax= 3.37D-02

 Cycle   5  Pass 0  IDiag  1:
 RMSU=  8.72D-05    CP:  9.84D-01  1.02D+00  7.31D-01  5.57D-01
 E= -1991.35515937330     Delta-E=       -0.011025255656 Rises=F Damp=F
 DIIS: error= 1.04D-03 at cycle   5 NSaved=   5.
 NSaved= 5 IEnMin= 5 EnMin= -1991.35515937330     IErMin= 5 ErrMin= 1.04D-03
 ErrMax= 1.04D-03  0.00D+00 EMaxC= 1.00D-01 BMatC= 6.12D-04 BMatP= 1.32D-02
 IDIUse=3 WtCom= 9.90D-01 WtEn= 1.04D-02
 Coeff-Com: -0.884D-02 0.206D-01 0.138D+00 0.286D+00 0.564D+00
 Coeff-En:   0.000D+00 0.000D+00 0.000D+00 0.000D+00 0.100D+01
 Coeff:     -0.875D-02 0.204D-01 0.137D+00 0.283D+00 0.568D+00
 Gap=     0.226 Goal=   None    Shift=    0.000
 RMSDP=5.16D-05 MaxDP=3.85D-03 DE=-1.10D-02 OVMax= 9.84D-03

 Cycle   6  Pass 0  IDiag  1:
 RMSU=  2.75D-05    CP:  9.84D-01  1.03D+00  7.29D-01  6.28D-01  5.90D-01
 E= -1991.35569067097     Delta-E=       -0.000531297669 Rises=F Damp=F
 DIIS: error= 3.31D-04 at cycle   6 NSaved=   6.
 NSaved= 6 IEnMin= 6 EnMin= -1991.35569067097     IErMin= 6 ErrMin= 3.31D-04
 ErrMax= 3.31D-04  0.00D+00 EMaxC= 1.00D-01 BMatC= 6.09D-05 BMatP= 6.12D-04
 IDIUse=3 WtCom= 9.97D-01 WtEn= 3.31D-03
 Coeff-Com: -0.163D-02 0.142D-02 0.306D-01 0.811D-01 0.291D+00 0.598D+00
 Coeff-En:   0.000D+00 0.000D+00 0.000D+00 0.000D+00 0.464D-02 0.995D+00
 Coeff:     -0.162D-02 0.142D-02 0.305D-01 0.808D-01 0.290D+00 0.599D+00
 Gap=     0.227 Goal=   None    Shift=    0.000
 RMSDP=1.51D-05 MaxDP=8.84D-04 DE=-5.31D-04 OVMax= 2.56D-03

 Cycle   7  Pass 0  IDiag  1:
 RMSU=  9.44D-06    CP:  9.84D-01  1.03D+00  7.32D-01  6.28D-01  6.75D-01
                    CP:  6.80D-01
 E= -1991.35574908414     Delta-E=       -0.000058413171 Rises=F Damp=F
 DIIS: error= 4.50D-05 at cycle   7 NSaved=   7.
 NSaved= 7 IEnMin= 7 EnMin= -1991.35574908414     IErMin= 7 ErrMin= 4.50D-05
 ErrMax= 4.50D-05  0.00D+00 EMaxC= 1.00D-01 BMatC= 3.73D-06 BMatP= 6.09D-05
 IDIUse=1 WtCom= 1.00D+00 WtEn= 0.00D+00
 Coeff-Com:  0.196D-03-0.139D-02-0.155D-02 0.490D-02 0.692D-01 0.249D+00
 Coeff-Com:  0.680D+00
 Coeff:      0.196D-03-0.139D-02-0.155D-02 0.490D-02 0.692D-01 0.249D+00
 Coeff:      0.680D+00
 Gap=     0.226 Goal=   None    Shift=    0.000
 RMSDP=4.42D-06 MaxDP=2.35D-04 DE=-5.84D-05 OVMax= 5.72D-04

 Initial convergence to 1.0D-05 achieved.  Increase integral accuracy.
 Cycle   8  Pass 1  IDiag  1:
 E= -1991.35577430993     Delta-E=       -0.000025225789 Rises=F Damp=F
 DIIS: error= 2.01D-04 at cycle   1 NSaved=   1.
 NSaved= 1 IEnMin= 1 EnMin= -1991.35577430993     IErMin= 1 ErrMin= 2.01D-04
 ErrMax= 2.01D-04  0.00D+00 EMaxC= 1.00D-01 BMatC= 1.34D-05 BMatP= 1.34D-05
 IDIUse=3 WtCom= 9.98D-01 WtEn= 2.01D-03
 Coeff-Com:  0.100D+01
 Coeff-En:   0.100D+01
 Coeff:      0.100D+01
 Gap=     0.226 Goal=   None    Shift=    0.000
 RMSDP=4.42D-06 MaxDP=2.35D-04 DE=-2.52D-05 OVMax= 4.66D-04

 Cycle   9  Pass 1  IDiag  1:
 RMSU=  7.51D-05    CP:  1.00D+00
 E= -1991.35578655321     Delta-E=       -0.000012243277 Rises=F Damp=F
 DIIS: error= 1.87D-05 at cycle   2 NSaved=   2.
 NSaved= 2 IEnMin= 2 EnMin= -1991.35578655321     IErMin= 2 ErrMin= 1.87D-05
 ErrMax= 1.87D-05  0.00D+00 EMaxC= 1.00D-01 BMatC= 6.90D-07 BMatP= 1.34D-05
 IDIUse=1 WtCom= 1.00D+00 WtEn= 0.00D+00
 Coeff-Com:  0.580D-01 0.942D+00
 Coeff:      0.580D-01 0.942D+00
 Gap=     0.226 Goal=   None    Shift=    0.000
 RMSDP=3.77D-06 MaxDP=2.00D-04 DE=-1.22D-05 OVMax= 3.72D-04

 Cycle  10  Pass 1  IDiag  1:
 RMSU=  3.06D-06    CP:  1.00D+00  1.03D+00
 E= -1991.35578627434     Delta-E=        0.000000278873 Rises=F Damp=F
 DIIS: error= 3.29D-05 at cycle   3 NSaved=   3.
 NSaved= 3 IEnMin= 2 EnMin= -1991.35578655321     IErMin= 2 ErrMin= 1.87D-05
 ErrMax= 3.29D-05  0.00D+00 EMaxC= 1.00D-01 BMatC= 1.06D-06 BMatP= 6.90D-07
 IDIUse=1 WtCom= 1.00D+00 WtEn= 0.00D+00
 Coeff-Com: -0.146D-01 0.559D+00 0.456D+00
 Coeff:     -0.146D-01 0.559D+00 0.456D+00
 Gap=     0.226 Goal=   None    Shift=    0.000
 RMSDP=1.69D-06 MaxDP=1.21D-04 DE= 2.79D-07 OVMax= 2.27D-04

 Cycle  11  Pass 1  IDiag  1:
 RMSU=  6.54D-07    CP:  1.00D+00  1.03D+00  4.99D-01
 E= -1991.35578716859     Delta-E=       -0.000000894259 Rises=F Damp=F
 DIIS: error= 4.49D-06 at cycle   4 NSaved=   4.
 NSaved= 4 IEnMin= 4 EnMin= -1991.35578716859     IErMin= 4 ErrMin= 4.49D-06
 ErrMax= 4.49D-06  0.00D+00 EMaxC= 1.00D-01 BMatC= 1.23D-08 BMatP= 6.90D-07
 IDIUse=1 WtCom= 1.00D+00 WtEn= 0.00D+00
 Coeff-Com: -0.814D-02 0.256D+00 0.222D+00 0.531D+00
 Coeff:     -0.814D-02 0.256D+00 0.222D+00 0.531D+00
 Gap=     0.226 Goal=   None    Shift=    0.000
 RMSDP=2.32D-07 MaxDP=1.31D-05 DE=-8.94D-07 OVMax= 4.30D-05

 Cycle  12  Pass 1  IDiag  1:
 RMSU=  2.03D-07    CP:  1.00D+00  1.03D+00  5.20D-01  8.67D-01
 E= -1991.35578718029     Delta-E=       -0.000000011692 Rises=F Damp=F
 DIIS: error= 1.56D-06 at cycle   5 NSaved=   5.
 NSaved= 5 IEnMin= 5 EnMin= -1991.35578718029     IErMin= 5 ErrMin= 1.56D-06
 ErrMax= 1.56D-06  0.00D+00 EMaxC= 1.00D-01 BMatC= 1.03D-09 BMatP= 1.23D-08
 IDIUse=1 WtCom= 1.00D+00 WtEn= 0.00D+00
 Coeff-Com: -0.719D-03 0.681D-02 0.858D-02 0.206D+00 0.779D+00
 Coeff:     -0.719D-03 0.681D-02 0.858D-02 0.206D+00 0.779D+00
 Gap=     0.226 Goal=   None    Shift=    0.000
 RMSDP=9.39D-08 MaxDP=4.28D-06 DE=-1.17D-08 OVMax= 1.45D-05

 Cycle  13  Pass 1  IDiag  1:
 RMSU=  7.17D-08    CP:  1.00D+00  1.03D+00  5.23D-01  9.52D-01  9.10D-01
 E= -1991.35578718134     Delta-E=       -0.000000001054 Rises=F Damp=F
 DIIS: error= 5.09D-07 at cycle   6 NSaved=   6.
 NSaved= 6 IEnMin= 6 EnMin= -1991.35578718134     IErMin= 6 ErrMin= 5.09D-07
 ErrMax= 5.09D-07  0.00D+00 EMaxC= 1.00D-01 BMatC= 2.60D-10 BMatP= 1.03D-09
 IDIUse=1 WtCom= 1.00D+00 WtEn= 0.00D+00
 Coeff-Com:  0.897D-03-0.365D-01-0.307D-01 0.365D-01 0.421D+00 0.609D+00
 Coeff:      0.897D-03-0.365D-01-0.307D-01 0.365D-01 0.421D+00 0.609D+00
 Gap=     0.226 Goal=   None    Shift=    0.000
 RMSDP=3.89D-08 MaxDP=1.79D-06 DE=-1.05D-09 OVMax= 6.84D-06

 Cycle  14  Pass 1  IDiag  1:
 RMSU=  2.89D-08    CP:  1.00D+00  1.03D+00  5.24D-01  9.73D-01  9.94D-01
                    CP:  8.18D-01
 E= -1991.35578718161     Delta-E=       -0.000000000266 Rises=F Damp=F
 DIIS: error= 1.63D-07 at cycle   7 NSaved=   7.
 NSaved= 7 IEnMin= 7 EnMin= -1991.35578718161     IErMin= 7 ErrMin= 1.63D-07
 ErrMax= 1.63D-07  0.00D+00 EMaxC= 1.00D-01 BMatC= 2.06D-11 BMatP= 2.60D-10
 IDIUse=1 WtCom= 1.00D+00 WtEn= 0.00D+00
 Coeff-Com:  0.455D-03-0.164D-01-0.143D-01-0.122D-02 0.104D+00 0.270D+00
 Coeff-Com:  0.658D+00
 Coeff:      0.455D-03-0.164D-01-0.143D-01-0.122D-02 0.104D+00 0.270D+00
 Coeff:      0.658D+00
 Gap=     0.226 Goal=   None    Shift=    0.000
 RMSDP=1.17D-08 MaxDP=6.14D-07 DE=-2.66D-10 OVMax= 2.06D-06

 Cycle  15  Pass 1  IDiag  1:
 RMSU=  8.67D-09    CP:  1.00D+00  1.03D+00  5.25D-01  9.78D-01  1.00D+00
                    CP:  9.09D-01  1.02D+00
 E= -1991.35578718164     Delta-E=       -0.000000000038 Rises=F Damp=F
 DIIS: error= 4.64D-08 at cycle   8 NSaved=   8.
 NSaved= 8 IEnMin= 8 EnMin= -1991.35578718164     IErMin= 8 ErrMin= 4.64D-08
 ErrMax= 4.64D-08  0.00D+00 EMaxC= 1.00D-01 BMatC= 2.38D-12 BMatP= 2.06D-11
 IDIUse=1 WtCom= 1.00D+00 WtEn= 0.00D+00
 Coeff-Com: -0.346D-05 0.972D-03 0.400D-03-0.661D-02-0.485D-01-0.132D-01
 Coeff-Com:  0.238D+00 0.829D+00
 Coeff:     -0.346D-05 0.972D-03 0.400D-03-0.661D-02-0.485D-01-0.132D-01
 Coeff:      0.238D+00 0.829D+00
 Gap=     0.226 Goal=   None    Shift=    0.000
 RMSDP=5.22D-09 MaxDP=2.77D-07 DE=-3.82D-11 OVMax= 9.63D-07

 SCF Done:  E(RM062X) =  -1991.35578718     A.U. after   15 cycles
            NFock= 15  Conv=0.52D-08     -V/T= 2.0076
 KE= 1.976412711394D+03 PE=-1.457142032251D+04 EE= 5.644028891741D+03
 Leave Link  502 at Thu Feb  7 10:42:25 2019, MaxMem=   104857600 cpu:            3883.7 elap:             162.1
 (Enter /home/xinyan/g16/l601.exe)
 Copying SCF densities to generalized density rwf, IOpCl= 0 IROHF=0.

 **********************************************************************

            Population analysis using the SCF density.

 **********************************************************************

 Orbital symmetries:
       Occupied  (A) (A) (A) (A) (A) (A) (A) (A) (A) (A) (A) (A)
                 (A) (A) (A) (A) (A) (A) (A) (A) (A) (A) (A) (A)
                 (A) (A) (A) (A) (A) (A) (A) (A) (A) (A) (A) (A)
                 (A) (A) (A) (A) (A) (A) (A) (A) (A) (A) (A) (A)
                 (A) (A) (A) (A) (A) (A) (A) (A) (A) (A) (A) (A)
                 (A) (A) (A) (A) (A) (A) (A) (A) (A) (A) (A) (A)
                 (A) (A) (A) (A) (A) (A) (A) (A) (A) (A) (A) (A)
                 (A) (A) (A) (A) (A) (A) (A) (A) (A) (A) (A) (A)
                 (A) (A) (A) (A) (A) (A) (A) (A) (A) (A) (A) (A)
                 (A) (A) (A) (A) (A) (A) (A) (A) (A) (A) (A) (A)
                 (A) (A) (A) (A) (A) (A) (A) (A) (A) (A) (A) (A)
                 (A) (A) (A) (A) (A) (A) (A) (A)
       Virtual   (A) (A) (A) (A) (A) (A) (A) (A) (A) (A) (A) (A)
                 (A) (A) (A) (A) (A) (A) (A) (A) (A) (A) (A) (A)
                 (A) (A) (A) (A) (A) (A) (A) (A) (A) (A) (A) (A)
                 (A) (A) (A) (A) (A) (A) (A) (A) (A) (A) (A) (A)
                 (A) (A) (A) (A) (A) (A) (A) (A) (A) (A) (A) (A)
                 (A) (A) (A) (A) (A) (A) (A) (A) (A) (A) (A) (A)
                 (A) (A) (A) (A) (A) (A) (A) (A) (A) (A) (A) (A)
                 (A) (A) (A) (A) (A) (A) (A) (A) (A) (A) (A) (A)
                 (A) (A) (A) (A) (A) (A) (A) (A) (A) (A) (A) (A)
                 (A) (A) (A) (A) (A) (A) (A) (A) (A) (A) (A) (A)
                 (A) (A) (A) (A) (A) (A) (A) (A) (A) (A) (A) (A)
                 (A) (A) (A) (A) (A) (A) (A) (A) (A) (A) (A) (A)
                 (A) (A) (A) (A) (A) (A) (A) (A) (A) (A) (A) (A)
                 (A) (A) (A) (A) (A) (A) (A) (A) (A) (A) (A) (A)
                 (A) (A) (A) (A) (A) (A) (A) (A) (A) (A) (A) (A)
                 (A) (A) (A) (A) (A) (A) (A) (A) (A) (A) (A) (A)
                 (A) (A) (A) (A) (A) (A) (A) (A) (A) (A) (A) (A)
                 (A) (A) (A) (A) (A) (A) (A) (A) (A) (A) (A) (A)
                 (A) (A) (A) (A) (A) (A) (A) (A) (A) (A) (A) (A)
                 (A) (A) (A) (A) (A) (A) (A) (A) (A) (A) (A) (A)
                 (A) (A) (A) (A) (A) (A) (A) (A) (A) (A) (A) (A)
                 (A) (A) (A) (A) (A) (A) (A) (A) (A) (A) (A) (A)
                 (A) (A) (A) (A) (A) (A) (A) (A) (A) (A) (A) (A)
                 (A) (A) (A) (A) (A) (A) (A) (A) (A) (A) (A) (A)
                 (A) (A) (A) (A) (A) (A) (A) (A) (A) (A) (A) (A)
                 (A) (A) (A) (A) (A) (A) (A) (A) (A) (A) (A) (A)
                 (A) (A) (A) (A) (A) (A) (A) (A) (A) (A) (A) (A)
                 (A) (A) (A) (A) (A) (A) (A) (A) (A) (A) (A) (A)
                 (A) (A) (A) (A) (A) (A) (A) (A) (A) (A) (A) (A)
                 (A) (A) (A) (A) (A) (A) (A) (A) (A) (A) (A) (A)
                 (A) (A) (A) (A) (A) (A) (A) (A) (A) (A) (A) (A)
                 (A) (A) (A) (A) (A) (A) (A) (A) (A) (A) (A) (A)
                 (A) (A) (A) (A) (A) (A) (A) (A) (A) (A) (A) (A)
                 (A) (A) (A) (A) (A) (A) (A) (A) (A) (A) (A) (A)
                 (A) (A) (A) (A) (A) (A) (A) (A) (A) (A) (A) (A)
                 (A) (A) (A) (A) (A) (A) (A) (A) (A) (A) (A) (A)
                 (A) (A) (A) (A) (A) (A) (A) (A) (A) (A) (A) (A)
                 (A) (A) (A) (A) (A) (A) (A) (A) (A) (A) (A) (A)
                 (A) (A) (A) (A) (A) (A) (A) (A) (A) (A) (A) (A)
                 (A) (A) (A) (A) (A) (A) (A) (A) (A) (A) (A) (A)
                 (A) (A) (A) (A) (A) (A)
 The electronic state is 1-A.
 Alpha  occ. eigenvalues --  -90.14800 -19.62394 -19.62155 -19.58640 -19.56858
 Alpha  occ. eigenvalues --  -19.50480 -14.85208 -14.80052 -14.76687 -10.63171
 Alpha  occ. eigenvalues --  -10.62633 -10.62146 -10.62088 -10.61093 -10.59900
 Alpha  occ. eigenvalues --  -10.57784 -10.57774 -10.57609 -10.57041 -10.56993
 Alpha  occ. eigenvalues --  -10.56907 -10.56313 -10.55888 -10.55101 -10.55098
 Alpha  occ. eigenvalues --  -10.55018 -10.54857 -10.54689 -10.54662 -10.54655
 Alpha  occ. eigenvalues --  -10.54472 -10.54084 -10.53098 -10.51089 -10.50976
 Alpha  occ. eigenvalues --  -10.49488  -8.45768  -6.37996  -6.37948  -6.37812
 Alpha  occ. eigenvalues --   -1.22582  -1.13490  -1.12890  -1.10795  -1.08898
 Alpha  occ. eigenvalues --   -1.05864  -1.02514  -0.99682  -0.95857  -0.95204
 Alpha  occ. eigenvalues --   -0.93490  -0.90147  -0.88588  -0.86542  -0.85326
 Alpha  occ. eigenvalues --   -0.84945  -0.84865  -0.83720  -0.83283  -0.83087
 Alpha  occ. eigenvalues --   -0.76587  -0.75934  -0.75573  -0.74286  -0.73288
 Alpha  occ. eigenvalues --   -0.71779  -0.68227  -0.68162  -0.67762  -0.67503
 Alpha  occ. eigenvalues --   -0.66454  -0.65496  -0.64854  -0.63364  -0.60496
 Alpha  occ. eigenvalues --   -0.60371  -0.59961  -0.59456  -0.57914  -0.57694
 Alpha  occ. eigenvalues --   -0.57177  -0.56425  -0.55715  -0.55117  -0.54377
 Alpha  occ. eigenvalues --   -0.53576  -0.53089  -0.52693  -0.52489  -0.52154
 Alpha  occ. eigenvalues --   -0.51701  -0.50800  -0.50165  -0.49913  -0.49343
 Alpha  occ. eigenvalues --   -0.49229  -0.48972  -0.48456  -0.48159  -0.47991
 Alpha  occ. eigenvalues --   -0.47739  -0.47624  -0.47170  -0.46144  -0.45807
 Alpha  occ. eigenvalues --   -0.45216  -0.45125  -0.44378  -0.43939  -0.43213
 Alpha  occ. eigenvalues --   -0.42493  -0.42311  -0.41148  -0.40907  -0.40786
 Alpha  occ. eigenvalues --   -0.40672  -0.40416  -0.40080  -0.39835  -0.39390
 Alpha  occ. eigenvalues --   -0.39192  -0.38894  -0.38622  -0.38344  -0.37839
 Alpha  occ. eigenvalues --   -0.37370  -0.36499  -0.36428  -0.36080  -0.35005
 Alpha  occ. eigenvalues --   -0.34503  -0.34271  -0.31757  -0.31358  -0.30004
 Alpha  occ. eigenvalues --   -0.29232  -0.28823  -0.27747  -0.24122  -0.23886
 Alpha virt. eigenvalues --   -0.01245   0.00557   0.03228   0.03558   0.10137
 Alpha virt. eigenvalues --    0.10587   0.11325   0.12555   0.13169   0.13290
 Alpha virt. eigenvalues --    0.14124   0.14435   0.14998   0.15499   0.15552
 Alpha virt. eigenvalues --    0.16206   0.16465   0.16927   0.17307   0.17660
 Alpha virt. eigenvalues --    0.17935   0.18088   0.18180   0.18667   0.19053
 Alpha virt. eigenvalues --    0.19226   0.19431   0.19905   0.20001   0.20212
 Alpha virt. eigenvalues --    0.20464   0.20922   0.21157   0.21312   0.21422
 Alpha virt. eigenvalues --    0.21981   0.22169   0.22581   0.22866   0.23348
 Alpha virt. eigenvalues --    0.23570   0.24007   0.24515   0.24650   0.24779
 Alpha virt. eigenvalues --    0.25161   0.25406   0.25695   0.26128   0.26621
 Alpha virt. eigenvalues --    0.26909   0.27211   0.27939   0.28387   0.28481
 Alpha virt. eigenvalues --    0.28917   0.29339   0.29547   0.30421   0.30839
 Alpha virt. eigenvalues --    0.30959   0.31700   0.31838   0.32154   0.32337
 Alpha virt. eigenvalues --    0.33253   0.34015   0.35035   0.35387   0.35652
 Alpha virt. eigenvalues --    0.36068   0.37244   0.37656   0.37966   0.38924
 Alpha virt. eigenvalues --    0.39702   0.40176   0.40339   0.42310   0.42738
 Alpha virt. eigenvalues --    0.44013   0.44651   0.46682   0.47853   0.48987
 Alpha virt. eigenvalues --    0.49212   0.50917   0.52353   0.53317   0.54467
 Alpha virt. eigenvalues --    0.54910   0.55464   0.55964   0.56782   0.57249
 Alpha virt. eigenvalues --    0.57601   0.57960   0.58632   0.59187   0.59534
 Alpha virt. eigenvalues --    0.59917   0.60136   0.60441   0.60596   0.60905
 Alpha virt. eigenvalues --    0.61330   0.61772   0.62437   0.62477   0.62965
 Alpha virt. eigenvalues --    0.63729   0.63907   0.64382   0.64749   0.65591
 Alpha virt. eigenvalues --    0.66028   0.66148   0.66696   0.67501   0.67914
 Alpha virt. eigenvalues --    0.68162   0.68699   0.69358   0.70052   0.70522
 Alpha virt. eigenvalues --    0.70823   0.71523   0.71929   0.72989   0.73137
 Alpha virt. eigenvalues --    0.73564   0.74389   0.74701   0.75097   0.75925
 Alpha virt. eigenvalues --    0.76634   0.77397   0.77562   0.77877   0.78855
 Alpha virt. eigenvalues --    0.79166   0.79749   0.79876   0.80195   0.80959
 Alpha virt. eigenvalues --    0.81321   0.81730   0.83037   0.83554   0.84219
 Alpha virt. eigenvalues --    0.84506   0.85147   0.85272   0.85462   0.86348
 Alpha virt. eigenvalues --    0.87589   0.88404   0.88836   0.89274   0.89656
 Alpha virt. eigenvalues --    0.90029   0.90127   0.90325   0.90838   0.91351
 Alpha virt. eigenvalues --    0.91746   0.92044   0.92393   0.92713   0.93367
 Alpha virt. eigenvalues --    0.93528   0.93991   0.94363   0.94813   0.95053
 Alpha virt. eigenvalues --    0.95413   0.95534   0.96362   0.96697   0.96825
 Alpha virt. eigenvalues --    0.96943   0.97538   0.97888   0.98005   0.98676
 Alpha virt. eigenvalues --    0.98960   0.99424   0.99712   0.99767   1.00728
 Alpha virt. eigenvalues --    1.01056   1.01358   1.02084   1.02518   1.02736
 Alpha virt. eigenvalues --    1.02927   1.03824   1.04262   1.04488   1.05293
 Alpha virt. eigenvalues --    1.06143   1.06614   1.07385   1.08280   1.08678
 Alpha virt. eigenvalues --    1.09382   1.09901   1.10577   1.11412   1.11826
 Alpha virt. eigenvalues --    1.12729   1.13111   1.13530   1.14230   1.15343
 Alpha virt. eigenvalues --    1.16154   1.16877   1.18147   1.18810   1.18956
 Alpha virt. eigenvalues --    1.19577   1.19820   1.20333   1.21016   1.21163
 Alpha virt. eigenvalues --    1.22777   1.23600   1.24357   1.24516   1.25480
 Alpha virt. eigenvalues --    1.26037   1.26461   1.27964   1.28533   1.29721
 Alpha virt. eigenvalues --    1.30699   1.31252   1.32109   1.32350   1.32729
 Alpha virt. eigenvalues --    1.33403   1.34291   1.35145   1.35489   1.36590
 Alpha virt. eigenvalues --    1.37045   1.38278   1.39072   1.40711   1.40842
 Alpha virt. eigenvalues --    1.41439   1.42001   1.44021   1.45472   1.46530
 Alpha virt. eigenvalues --    1.47348   1.47695   1.48739   1.49536   1.50692
 Alpha virt. eigenvalues --    1.51007   1.52150   1.52308   1.52916   1.54148
 Alpha virt. eigenvalues --    1.54539   1.54967   1.55238   1.55794   1.57072
 Alpha virt. eigenvalues --    1.57413   1.58319   1.59425   1.59931   1.61024
 Alpha virt. eigenvalues --    1.62229   1.62749   1.63933   1.64595   1.67059
 Alpha virt. eigenvalues --    1.68887   1.69651   1.69859   1.72130   1.73814
 Alpha virt. eigenvalues --    1.74142   1.74758   1.75770   1.76391   1.76706
 Alpha virt. eigenvalues --    1.78351   1.79264   1.80482   1.81010   1.82563
 Alpha virt. eigenvalues --    1.83485   1.83809   1.84211   1.85463   1.86001
 Alpha virt. eigenvalues --    1.86249   1.86848   1.87609   1.87721   1.88707
 Alpha virt. eigenvalues --    1.89203   1.89436   1.90343   1.90869   1.91044
 Alpha virt. eigenvalues --    1.92469   1.93189   1.93639   1.93924   1.94372
 Alpha virt. eigenvalues --    1.94724   1.95351   1.96010   1.96807   1.97202
 Alpha virt. eigenvalues --    1.97582   1.99063   1.99344   1.99902   2.00623
 Alpha virt. eigenvalues --    2.00963   2.01901   2.02128   2.03026   2.04222
 Alpha virt. eigenvalues --    2.04785   2.05662   2.05744   2.06333   2.06757
 Alpha virt. eigenvalues --    2.07249   2.07596   2.08607   2.09424   2.09676
 Alpha virt. eigenvalues --    2.10057   2.10419   2.10672   2.11502   2.11885
 Alpha virt. eigenvalues --    2.12663   2.13438   2.14497   2.14819   2.15350
 Alpha virt. eigenvalues --    2.16135   2.16461   2.17548   2.18103   2.18441
 Alpha virt. eigenvalues --    2.19327   2.19875   2.20543   2.20956   2.21028
 Alpha virt. eigenvalues --    2.22081   2.22645   2.23057   2.23646   2.23694
 Alpha virt. eigenvalues --    2.24683   2.24893   2.25674   2.26728   2.27506
 Alpha virt. eigenvalues --    2.28125   2.29079   2.29865   2.30647   2.31059
 Alpha virt. eigenvalues --    2.31964   2.33547   2.34657   2.34893   2.35207
 Alpha virt. eigenvalues --    2.35928   2.37008   2.37531   2.38058   2.38247
 Alpha virt. eigenvalues --    2.39703   2.40838   2.41047   2.41300   2.41733
 Alpha virt. eigenvalues --    2.42581   2.44528   2.45713   2.46506   2.47530
 Alpha virt. eigenvalues --    2.49238   2.49843   2.51028   2.51916   2.52531
 Alpha virt. eigenvalues --    2.53414   2.54126   2.56116   2.56971   2.59177
 Alpha virt. eigenvalues --    2.60863   2.61288   2.61665   2.62374   2.63488
 Alpha virt. eigenvalues --    2.63968   2.64942   2.65112   2.67125   2.68295
 Alpha virt. eigenvalues --    2.69069   2.69500   2.70072   2.71534   2.71943
 Alpha virt. eigenvalues --    2.72803   2.74386   2.75740   2.76087   2.77655
 Alpha virt. eigenvalues --    2.78706   2.79378   2.80270   2.81043   2.81378
 Alpha virt. eigenvalues --    2.83379   2.85970   2.86295   2.86574   2.88474
 Alpha virt. eigenvalues --    2.89751   2.91090   2.92981   2.93322   2.96205
 Alpha virt. eigenvalues --    3.00024   3.00598   3.01002   3.05141   3.10277
 Alpha virt. eigenvalues --    3.14442   3.17533   3.24144   3.41602   3.42557
 Alpha virt. eigenvalues --    3.93273   4.00233   4.03594   4.08831   4.12310
 Alpha virt. eigenvalues --    4.13623   4.15262   4.15943   4.17830   4.18945
 Alpha virt. eigenvalues --    4.20490   4.22125   4.23951   4.26127   4.26960
 Alpha virt. eigenvalues --    4.28509   4.31011   4.32608   4.34733   4.35615
 Alpha virt. eigenvalues --    4.38242   4.39651   4.40838   4.43367   4.45638
 Alpha virt. eigenvalues --    4.46089   4.55537   4.58116   4.59175   4.61057
 Alpha virt. eigenvalues --    4.62484   4.65991   4.73272   4.74848   4.76906
 Alpha virt. eigenvalues --    4.78355
          Condensed to atoms (all electrons):
 Mulliken charges:
               1
     1  C   -0.306391
     2  C   -0.307815
     3  C   -0.310862
     4  C   -0.059719
     5  C    0.063091
     6  C   -0.307219
     7  H    0.175589
     8  H    0.163258
     9  H    0.166842
    10  H    0.150950
    11  H    0.165047
    12  H    0.206853
    13  H    0.175232
    14  H    0.193393
    15  H    0.161454
    16  H    0.156180
    17  N   -0.437510
    18  C    0.077483
    19  C    0.077512
    20  C   -0.207769
    21  H    0.203268
    22  C   -0.219231
    23  H    0.243077
    24  C    0.449827
    25  H    0.192102
    26  H    0.209901
    27  N   -0.518808
    28  C   -0.166683
    29  H    0.166893
    30  H    0.222838
    31  C   -0.146362
    32  H    0.160469
    33  H    0.205677
    34  N   -0.805806
    35  S    1.239845
    36  O   -0.603161
    37  O   -0.591395
    38  C    0.052324
    39  C   -0.196049
    40  C   -0.192202
    41  C   -0.172261
    42  C   -0.165500
    43  C   -0.205228
    44  H    0.232172
    45  H    0.141827
    46  H    0.156103
    47  H    0.159664
    48  H    0.153872
    49  O   -0.589888
    50  H    0.446323
    51  C    0.717152
    52  O   -0.698227
    53  O   -0.705767
    54  H    0.432027
    55  C   -0.340699
    56  H    0.143249
    57  H    0.150502
    58  C   -0.082485
    59  H    0.132510
    60  H    0.155955
    61  C   -0.665656
    62  H    0.270058
    63  H    0.200117
    64  H    0.222349
    65  C   -0.285422
    66  H    0.141638
    67  H    0.140233
    68  C   -0.474484
    69  H    0.147923
    70  H    0.149644
    71  H    0.148033
    72  C   -0.333823
    73  H    0.184764
    74  H    0.159944
    75  C   -0.338694
    76  H    0.204531
    77  H    0.165422
 Sum of Mulliken charges =  -0.00000
 Mulliken charges with hydrogens summed into heavy atoms:
               1
     1  C    0.009605
     2  C    0.022285
     3  C    0.020908
     4  C    0.147134
     5  C    0.238323
     6  C    0.047628
    17  N   -0.437510
    18  C    0.280751
    19  C    0.320589
    20  C   -0.015667
    22  C   -0.009330
    24  C    0.449827
    27  N   -0.518808
    28  C    0.223048
    31  C    0.219783
    34  N   -0.359484
    35  S    1.239845
    36  O   -0.603161
    37  O   -0.591395
    38  C    0.052324
    39  C    0.036123
    40  C   -0.050375
    41  C   -0.016158
    42  C   -0.005836
    43  C   -0.051356
    49  O   -0.589888
    51  C    0.717152
    52  O   -0.698227
    53  O   -0.273740
    55  C   -0.046947
    58  C    0.205981
    61  C    0.026868
    65  C   -0.003551
    68  C   -0.028884
    72  C    0.010885
    75  C    0.031259
 Electronic spatial extent (au):  <R**2>=          14601.3840
 Charge=             -0.0000 electrons
 Dipole moment (field-independent basis, Debye):
    X=             -3.6215    Y=             -1.6930    Z=             -5.7405  Tot=              6.9954
 Quadrupole moment (field-independent basis, Debye-Ang):
   XX=           -208.6400   YY=           -222.1084   ZZ=           -218.5617
   XY=            -13.2860   XZ=             -4.1079   YZ=             10.7103
 Traceless Quadrupole moment (field-independent basis, Debye-Ang):
   XX=              7.7967   YY=             -5.6717   ZZ=             -2.1250
   XY=            -13.2860   XZ=             -4.1079   YZ=             10.7103
 Octapole moment (field-independent basis, Debye-Ang**2):
  XXX=              2.4920  YYY=            -52.3920  ZZZ=             17.5495  XYY=              4.7315
  XXY=            -25.2100  XXZ=            -41.8749  XZZ=            -23.8484  YZZ=             15.6809
  YYZ=             18.7735  XYZ=            -17.9505
 Hexadecapole moment (field-independent basis, Debye-Ang**3):
 XXXX=         -10048.9428 YYYY=          -5485.9507 ZZZZ=          -3625.4184 XXXY=           -207.4537
 XXXZ=             -2.2081 YYYX=           -104.2639 YYYZ=             42.4127 ZZZX=           -107.2940
 ZZZY=              3.3429 XXYY=          -2604.3521 XXZZ=          -2373.9892 YYZZ=          -1625.3140
 XXYZ=             46.8757 YYXZ=             48.3484 ZZXY=            -56.0489
 N-N= 4.959622932193D+03 E-N=-1.457142029629D+04  KE= 1.976412711394D+03
 No NMR shielding tensors so no spin-rotation constants.
 Leave Link  601 at Thu Feb  7 10:42:27 2019, MaxMem=   104857600 cpu:              41.2 elap:               1.9
 (Enter /home/xinyan/g16/l701.exe)
 ... and contract with generalized density number  0.
 Compute integral first derivatives.
 R6Disp: Adding Grimme-D3 dispersion energy 1st derivatives to the gradient.
 Leave Link  701 at Thu Feb  7 10:42:28 2019, MaxMem=   104857600 cpu:              21.9 elap:               1.0
 (Enter /home/xinyan/g16/l702.exe)
 L702 exits ... SP integral derivatives will be done elsewhere.
 Leave Link  702 at Thu Feb  7 10:42:28 2019, MaxMem=   104857600 cpu:               1.4 elap:               0.1
 (Enter /home/xinyan/g16/l703.exe)
 Integral derivatives from FoFJK, PRISM(SPDF).
 Compute integral first derivatives, UseDBF=F ICtDFT=           0.
 Calling FoFJK, ICntrl=      2127 FMM=T ISym2X=0 I1Cent= 0 IOpClX= 0 NMat=1 NMatS=1 NMatT=0.
 FoFJK:  IHMeth= 1 ICntrl=    2127 DoSepK=F KAlg= 0 I1Cent=           0 FoldK=F
 IRaf=         0 NMat=       1 IRICut=       1 DoRegI=T DoRafI=F ISym2E= 0 IDoP0=0 IntGTp=1.
 FoFCou: FMM=T IPFlag=           0 FMFlag=      100000 FMFlg1=        2001
         NFxFlg=           0 DoJE=F BraDBF=F KetDBF=F FulRan=T
         wScrn=  0.000000 ICntrl=      2127 IOpCl=  0 I1Cent=           0 NGrid=           0
         NMat0=    1 NMatS0=      1 NMatT0=    0 NMatD0=    1 NMtDS0=    0 NMtDT0=    0
 Symmetry not used in FoFCou.
 FMM levels:  10  Number of levels for PrismC:   9
 Leave Link  703 at Thu Feb  7 10:43:03 2019, MaxMem=   104857600 cpu:             813.9 elap:              34.9
 (Enter /home/xinyan/g16/l716.exe)
 Dipole        =-1.42480861D+00-6.66074258D-01-2.25849419D+00
 ***** Axes restored to original set *****
 -------------------------------------------------------------------
 Center     Atomic                   Forces (Hartrees/Bohr)
 Number     Number              X              Y              Z
 -------------------------------------------------------------------
      1        6          -0.000017896   -0.000012674   -0.000024796
      2        6           0.000003430   -0.000007763   -0.000000516
      3        6          -0.000003455   -0.000011124   -0.000008572
      4        6           0.000017697    0.000023554    0.000012563
      5        6          -0.000022488   -0.000045450   -0.000009841
      6        6          -0.000005226   -0.000009621   -0.000015716
      7        1           0.000001354   -0.000013012   -0.000013921
      8        1           0.000003810   -0.000005105   -0.000017583
      9        1          -0.000004874   -0.000009866   -0.000012921
     10        1          -0.000011177   -0.000007346   -0.000019908
     11        1          -0.000002105   -0.000007204   -0.000015323
     12        1          -0.000007783   -0.000004791   -0.000014992
     13        1          -0.000025485   -0.000033108   -0.000047747
     14        1           0.000010818    0.000012641   -0.000025139
     15        1           0.000017082    0.000000708   -0.000019833
     16        1          -0.000008356   -0.000013930   -0.000017393
     17        7          -0.000005127   -0.000011754    0.000008461
     18        6           0.000002528    0.000017642   -0.000029707
     19        6          -0.000013691    0.000003618    0.000004058
     20        6           0.000003595    0.000010146    0.000016749
     21        1           0.000019386   -0.000004962   -0.000001658
     22        6           0.000006795    0.000031352    0.000013433
     23        1           0.000004127   -0.000007050   -0.000011492
     24        6          -0.000028373   -0.000043480   -0.000008104
     25        1           0.000011728    0.000006669    0.000000585
     26        1           0.000008240    0.000005218    0.000002301
     27        7           0.000016077    0.000055618    0.000004103
     28        6           0.000001651    0.000019391    0.000024987
     29        1          -0.000001764    0.000008301    0.000015721
     30        1          -0.000010773    0.000013182    0.000008700
     31        6          -0.000008830    0.000011415    0.000034822
     32        1          -0.000009083    0.000029730    0.000021674
     33        1           0.000000292    0.000042147    0.000036062
     34        7           0.000363405    0.000281681   -0.000099969
     35       16           0.000010867    0.000029502   -0.000040508
     36        8          -0.000055762   -0.000023686    0.000040733
     37        8           0.000017691    0.000025339   -0.000044097
     38        6           0.000040325   -0.000012217    0.000017835
     39        6           0.000008082    0.000024505   -0.000007714
     40        6           0.000004374    0.000026602    0.000036275
     41        6          -0.000033958    0.000015726    0.000042079
     42        6           0.000006826   -0.000027024    0.000062810
     43        6           0.000004030   -0.000026033    0.000027661
     44        1          -0.000018082    0.000018587   -0.000027763
     45        1          -0.000011771    0.000044667    0.000004119
     46        1          -0.000027371    0.000025178    0.000051145
     47        1          -0.000013864   -0.000017432    0.000073701
     48        1           0.000000316   -0.000047892    0.000067047
     49        8          -0.000231650    0.000239199    0.000057038
     50        1          -0.000212247   -0.000303927   -0.000107920
     51        6           0.000405026   -0.000164524    0.000121212
     52        8          -0.000215981    0.000016406    0.000023408
     53        8          -0.000044846    0.000034524   -0.000041815
     54        1           0.000007408    0.000001338    0.000037935
     55        6          -0.000036907    0.000023694   -0.000027834
     56        1           0.000053389   -0.000016715   -0.000030998
     57        1          -0.000062688   -0.000045541   -0.000040135
     58        6          -0.000033013   -0.000057118    0.000028093
     59        1           0.000044926   -0.000032376    0.000025464
     60        1           0.000025777    0.000000674    0.000005472
     61        6           0.000018611    0.000018393   -0.000026491
     62        1           0.000010073    0.000026287    0.000022786
     63        1           0.000008150    0.000024659   -0.000029321
     64        1          -0.000006798    0.000021548   -0.000011513
     65        6          -0.000012021   -0.000024423   -0.000009350
     66        1          -0.000045028   -0.000034741   -0.000042274
     67        1          -0.000014328    0.000009272   -0.000003371
     68        6           0.000028274   -0.000037817   -0.000059888
     69        1           0.000019270   -0.000051380   -0.000043707
     70        1           0.000052284   -0.000036356   -0.000021878
     71        1           0.000027277   -0.000080023   -0.000061042
     72        6          -0.000002002    0.000019140    0.000021478
     73        1          -0.000008167    0.000014587    0.000020993
     74        1          -0.000005904    0.000025756    0.000020426
     75        6          -0.000018558   -0.000007114    0.000032724
     76        1           0.000017576    0.000016710    0.000019179
     77        1          -0.000005136    0.000019275    0.000028916
 -------------------------------------------------------------------
 Cartesian Forces:  Max     0.000405026 RMS     0.000062031
 Z-matrix is all fixed cartesians, so copy forces.
 Leave Link  716 at Thu Feb  7 10:43:03 2019, MaxMem=   104857600 cpu:               2.4 elap:               0.1
 (Enter /home/xinyan/g16/l103.exe)

 GradGradGradGradGradGradGradGradGradGradGradGradGradGradGradGradGradGrad
 Berny optimization.
 Search for a local minimum.
 Step number   1 out of a maximum of    2
 All quantities printed in internal units (Hartrees-Bohrs-Radians)
 Second derivative matrix not updated -- first step.
 ITU=  0
     Eigenvalues ---   -0.00000   0.00000   0.00000   0.00000   0.00000
     Eigenvalues ---    0.00000   0.00004   0.00013   0.00018   0.00023
     Eigenvalues ---    0.00038   0.00038   0.00088   0.00094   0.00114
     Eigenvalues ---    0.00137   0.00138   0.00207   0.00235   0.00289
     Eigenvalues ---    0.00403   0.00413   0.00457   0.00506   0.00588
     Eigenvalues ---    0.00601   0.00628   0.00692   0.00714   0.00839
     Eigenvalues ---    0.00967   0.01093   0.01151   0.01546   0.01638
     Eigenvalues ---    0.01669   0.01841   0.01905   0.02040   0.02134
     Eigenvalues ---    0.02292   0.02320   0.02476   0.02525   0.02865
     Eigenvalues ---    0.02923   0.03048   0.03088   0.03261   0.03516
     Eigenvalues ---    0.03536   0.03810   0.03887   0.04186   0.04292
     Eigenvalues ---    0.04397   0.04793   0.04815   0.04845   0.04935
     Eigenvalues ---    0.05026   0.05063   0.05114   0.05138   0.05159
     Eigenvalues ---    0.05169   0.05254   0.05336   0.05475   0.05581
     Eigenvalues ---    0.05656   0.05675   0.05733   0.05748   0.05814
     Eigenvalues ---    0.05887   0.06156   0.06295   0.06556   0.06698
     Eigenvalues ---    0.06834   0.06843   0.06953   0.06974   0.07108
     Eigenvalues ---    0.07141   0.07237   0.07272   0.07335   0.07379
     Eigenvalues ---    0.07623   0.07847   0.07901   0.07948   0.08120
     Eigenvalues ---    0.08523   0.08593   0.08976   0.09082   0.09682
     Eigenvalues ---    0.09740   0.10183   0.10534   0.11284   0.11539
     Eigenvalues ---    0.11769   0.12213   0.12693   0.12793   0.12854
     Eigenvalues ---    0.12939   0.13004   0.13360   0.13704   0.13854
     Eigenvalues ---    0.14060   0.14491   0.14643   0.15439   0.16040
     Eigenvalues ---    0.16068   0.16540   0.16693   0.16968   0.17061
     Eigenvalues ---    0.17298   0.17522   0.17845   0.17968   0.19583
     Eigenvalues ---    0.19718   0.20326   0.20714   0.21451   0.21650
     Eigenvalues ---    0.23323   0.23546   0.24179   0.24824   0.26372
     Eigenvalues ---    0.27460   0.28431   0.29531   0.30049   0.31101
     Eigenvalues ---    0.31471   0.32387   0.33784   0.34689   0.36015
     Eigenvalues ---    0.36383   0.39398   0.40283   0.40783   0.43350
     Eigenvalues ---    0.43661   0.44481   0.48012   0.49302   0.50230
     Eigenvalues ---    0.53041   0.56777   0.56942   0.59353   0.64371
     Eigenvalues ---    0.65420   0.65543   0.67051   0.68164   0.68845
     Eigenvalues ---    0.70456   0.77153   0.77904   0.78692   0.81787
     Eigenvalues ---    0.82968   0.83368   0.84319   0.86242   0.87479
     Eigenvalues ---    0.88403   0.88711   0.90657   0.91374   0.92584
     Eigenvalues ---    0.94469   0.94831   0.94980   0.95840   0.96549
     Eigenvalues ---    0.98054   0.98153   0.99706   1.00322   1.00502
     Eigenvalues ---    1.00948   1.04143   1.04394   1.04772   1.06185
     Eigenvalues ---    1.06477   1.06803   1.07008   1.08775   1.09380
     Eigenvalues ---    1.14239   1.15359   1.15903   1.18227   1.19545
     Eigenvalues ---    1.21511   1.23814   1.26989   1.28467   1.37039
     Eigenvalues ---    1.47367   1.53355   1.58314   1.59042   1.59567
     Eigenvalues ---    1.67447   1.68423   1.73096   1.84309   2.36995
 Eigenvalue     1 is  -1.11D-16 should be greater than     0.000000 Eigenvector:
                          Y46       Y47       Y41       Y42       Y45
   1                    0.13429   0.13429   0.13429   0.13429   0.13429
                          Y40       Y43       Y48       Y39       Y38
   1                    0.13429   0.13429   0.13429   0.13429   0.13429
 Eigenvalue     2 is   3.13D-08 Eigenvector:
                          Y46       Y47       X54       Y41       Y42
   1                    0.26342   0.24712  -0.22394   0.21862   0.20946
                          X53       Y45       Y40       X52       X51
   1                   -0.19821   0.17640   0.16973  -0.16327  -0.15289
 Eigenvalue     3 is   6.13D-08 Eigenvector:
                          X46       Z47       X45       Z46       X41
   1                    0.20585  -0.20169   0.19318  -0.16900   0.16685
                          Z42       Z71       X40       Z48       Z41
   1                   -0.16442   0.16154   0.15953  -0.14906  -0.14622
 Eigenvalue     4 is   1.56D-07 Eigenvector:
                          Z54       Z53       Z77       Z76       Z52
   1                    0.19899   0.18727  -0.18076  -0.17355   0.16900
                          Z57       Z75       Z51       Y64       Z33
   1                    0.16584  -0.15525   0.15381   0.14826  -0.14700
 Eigenvalue     5 is   2.42D-07 Eigenvector:
                          Y71       Y69       Z47       Y68       X70
   1                    0.18239   0.16872  -0.15306   0.14921  -0.14677
                          Y73       Y47       Y9        Z46       Z71
   1                   -0.14646  -0.14595   0.14095  -0.13513   0.13177
 Eigenvalue     6 is   3.10D-07 Eigenvector:
                          Z54       Y45       Y59       Z70       Y64
   1                    0.23264  -0.21213   0.20829  -0.18867  -0.18051
                          Z69       Z53       Y48       Y69       Y54
   1                   -0.17868   0.17659   0.16718  -0.16146   0.15353
 Eigenvalue     7 is   4.10D-05 Eigenvector:
                          X69       Z70       X45       Z69       X70
   1                    0.24066   0.22960  -0.22802   0.22793   0.21746
                          X46       X68       Y45       Z68       Z54
   1                   -0.21649   0.19156  -0.19015   0.18545  -0.17491
 Quadratic step=2.670D+00 exceeds max=3.000D-01 adjusted using Lamda=-9.090D-04.
 Angle between NR and scaled steps=  16.71 degrees.
 Angle between quadratic step and forces=  69.12 degrees.
 Linear search not attempted -- first point.
 B after Tr=    -0.000484    0.000813    0.001023
         Rot=    1.000000   -0.000150    0.000068   -0.000043 Ang=  -0.02 deg.
 Variable       Old X    -DE/DX   Delta X   Delta X   Delta X     New X
                                 (Linear)    (Quad)   (Total)
    X1       -9.42363  -0.00002   0.00000  -0.00043  -0.00084  -9.42447
    Y1        0.43808  -0.00001   0.00000  -0.00870  -0.00844   0.42964
    Z1       -0.80778  -0.00002   0.00000  -0.01854  -0.01866  -0.82644
    X2       -9.70006   0.00000   0.00000  -0.00062  -0.00061  -9.70067
    Y2       -1.97869  -0.00001   0.00000  -0.01268  -0.01198  -1.99067
    Z2       -2.37563  -0.00000   0.00000  -0.01263  -0.01351  -2.38914
    X3       -7.14402  -0.00000   0.00000  -0.00134  -0.00111  -7.14513
    Y3       -2.79683  -0.00001   0.00000  -0.01463  -0.01338  -2.81022
    Z3       -3.46837  -0.00001   0.00000  -0.01317  -0.01395  -3.48231
    X4       -5.28522   0.00002   0.00000   0.00002  -0.00001  -5.28523
    Y4       -3.21488   0.00002   0.00000  -0.00868  -0.00793  -3.22280
    Z4       -1.30518   0.00001   0.00000  -0.01329  -0.01395  -1.31913
    X5       -4.95284  -0.00002   0.00000   0.00136   0.00091  -4.95193
    Y5       -0.76583  -0.00005   0.00000  -0.00414  -0.00382  -0.76965
    Z5        0.25936  -0.00001   0.00000  -0.02190  -0.02178   0.23759
    X6       -7.49938  -0.00001   0.00000   0.00302   0.00236  -7.49702
    Y6        0.10184  -0.00001   0.00000  -0.00146  -0.00167   0.10016
    Z6        1.32668  -0.00002   0.00000  -0.02033  -0.02029   1.30639
    X7       -7.32180   0.00000   0.00000  -0.00171  -0.00119  -7.32299
    Y7       -4.52123  -0.00001   0.00000  -0.01743  -0.01586  -4.53709
    Z7       -4.59878  -0.00001   0.00000  -0.00884  -0.01016  -4.60894
    X8      -10.45359   0.00000   0.00000   0.00110   0.00108 -10.45251
    Y8       -3.49989  -0.00001   0.00000  -0.01014  -0.00986  -3.50975
    Z8       -1.18282  -0.00002   0.00000  -0.00835  -0.00979  -1.19260
    X9      -11.05099  -0.00000   0.00000  -0.00225  -0.00206 -11.05304
    Y9       -1.69255  -0.00001   0.00000  -0.01688  -0.01584  -1.70839
    Z9       -3.91527  -0.00001   0.00000  -0.01199  -0.01297  -3.92824
   X10       -8.79492  -0.00001   0.00000  -0.00364  -0.00402  -8.79893
   Y10        1.98204  -0.00001   0.00000  -0.01111  -0.01043   1.97161
   Z10       -2.04500  -0.00002   0.00000  -0.02317  -0.02274  -2.06775
   X11      -11.25632  -0.00000   0.00000   0.00019  -0.00038 -11.25670
   Y11        0.99324  -0.00001   0.00000  -0.00836  -0.00849   0.98475
   Z11       -0.02517  -0.00002   0.00000  -0.01730  -0.01751  -0.04268
   X12       -6.00976  -0.00001   0.00000   0.00114   0.00107  -6.00870
   Y12       -4.69888  -0.00000   0.00000  -0.00537  -0.00504  -4.70392
   Z12       -0.05868  -0.00001   0.00000  -0.00869  -0.00989  -0.06856
   X13       -4.29773  -0.00003   0.00000  -0.00169  -0.00208  -4.29981
   Y13        0.69999  -0.00003   0.00000  -0.00885  -0.00808   0.69191
   Z13       -1.05394  -0.00005   0.00000  -0.02862  -0.02797  -1.08191
   X14       -8.18516   0.00001   0.00000   0.00568   0.00494  -8.18022
   Y14       -1.28702   0.00001   0.00000   0.00256   0.00187  -1.28514
   Z14        2.69947  -0.00003   0.00000  -0.01501  -0.01547   2.68400
   X15       -7.19685   0.00002   0.00000   0.00432   0.00336  -7.19349
   Y15        1.89300   0.00000   0.00000   0.00164   0.00115   1.89415
   Z15        2.32090  -0.00002   0.00000  -0.02628  -0.02566   2.29524
   X16       -6.46148  -0.00001   0.00000  -0.00283  -0.00257  -6.46405
   Y16       -1.28585  -0.00001   0.00000  -0.01739  -0.01571  -1.30155
   Z16       -4.71681  -0.00002   0.00000  -0.01732  -0.01756  -4.73437
   X17       -2.75191  -0.00001   0.00000   0.00109   0.00124  -2.75067
   Y17       -4.06713  -0.00001   0.00000  -0.00795  -0.00673  -4.07386
   Z17       -2.11549   0.00001   0.00000  -0.01018  -0.01075  -2.12624
   X18       -1.45307   0.00000   0.00000   0.00316   0.00344  -1.44963
   Y18       -2.77554   0.00002   0.00000  -0.00584  -0.00397  -2.77951
   Z18       -3.91850  -0.00003   0.00000  -0.00724  -0.00724  -3.92574
   X19       -1.43937  -0.00001   0.00000   0.00004   0.00011  -1.43926
   Y19       -5.60034   0.00000   0.00000  -0.00512  -0.00427  -5.60461
   Z19       -0.52631   0.00000   0.00000  -0.00657  -0.00742  -0.53372
   X20        1.10396   0.00000   0.00000   0.00413   0.00446   1.10842
   Y20       -2.92146   0.00001   0.00000   0.00010   0.00224  -2.91922
   Z20       -4.14345   0.00002   0.00000   0.00025   0.00055  -4.14291
   X21       -2.56642   0.00002   0.00000   0.00411   0.00446  -2.56196
   Y21       -1.57027  -0.00000   0.00000  -0.00785  -0.00572  -1.57598
   Z21       -5.14017  -0.00000   0.00000  -0.01003  -0.00983  -5.15000
   X22        1.12036   0.00001   0.00000   0.00073   0.00083   1.12119
   Y22       -5.81943   0.00003   0.00000   0.00038   0.00147  -5.81796
   Z22       -0.61365   0.00001   0.00000   0.00048  -0.00009  -0.61374
   X23       -2.55090   0.00000   0.00000  -0.00162  -0.00167  -2.55257
   Y23       -6.56398  -0.00001   0.00000  -0.00677  -0.00644  -6.57042
   Z23        0.90051  -0.00001   0.00000  -0.00899  -0.01028   0.89023
   X24        2.53705  -0.00003   0.00000   0.00204   0.00224   2.53929
   Y24       -4.31262  -0.00004   0.00000   0.00390   0.00562  -4.30700
   Z24       -2.33020  -0.00001   0.00000   0.00477   0.00485  -2.32535
   X25        2.02885   0.00001   0.00000   0.00597   0.00640   2.03525
   Y25       -1.84150   0.00001   0.00000   0.00226   0.00493  -1.83657
   Z25       -5.61235   0.00000   0.00000   0.00297   0.00372  -5.60863
   X26        2.03365   0.00001   0.00000  -0.00048  -0.00048   2.03317
   Y26       -6.98430   0.00001   0.00000   0.00275   0.00349  -6.98080
   Z26        0.79348   0.00000   0.00000   0.00324   0.00245   0.79592
   X27        5.04326   0.00002   0.00000   0.00153   0.00171   5.04497
   Y27       -4.22724   0.00006   0.00000   0.01093   0.01284  -4.21440
   Z27       -2.24936   0.00000   0.00000   0.01303   0.01347  -2.23589
   X28        6.42341   0.00000   0.00000  -0.00276  -0.00280   6.42061
   Y28       -5.20618   0.00002   0.00000   0.01206   0.01343  -5.19275
   Z28       -0.04197   0.00002   0.00000   0.01618   0.01652  -0.02545
   X29        6.17750  -0.00000   0.00000   0.00016   0.00027   6.17777
   Y29       -7.25156   0.00001   0.00000   0.01154   0.01284  -7.23872
   Z29        0.12525   0.00002   0.00000   0.01434   0.01403   0.13928
   X30        5.69357  -0.00001   0.00000  -0.00875  -0.00910   5.68447
   Y30       -4.24092   0.00001   0.00000   0.00993   0.01073  -4.23019
   Z30        1.64652   0.00001   0.00000   0.01480   0.01533   1.66185
   X31        6.48718  -0.00001   0.00000   0.00019   0.00036   6.48755
   Y31       -2.21757   0.00001   0.00000   0.01628   0.01870  -2.19888
   Z31       -3.52390   0.00003   0.00000   0.02000   0.02124  -3.50267
   X32        7.00591  -0.00001   0.00000   0.00490   0.00539   7.01130
   Y32       -2.82739   0.00003   0.00000   0.02109   0.02413  -2.80326
   Z32       -5.43648   0.00002   0.00000   0.01977   0.02090  -5.41558
   X33        5.34212   0.00000   0.00000  -0.00273  -0.00269   5.33944
   Y33       -0.50163   0.00004   0.00000   0.01446   0.01680  -0.48483
   Z33       -3.58664   0.00004   0.00000   0.02130   0.02290  -3.56374
   X34       -2.91844   0.00036   0.00000   0.00593   0.00525  -2.91318
   Y34       -0.97311   0.00028   0.00000   0.00147   0.00142  -0.97170
   Z34        2.08953  -0.00010   0.00000  -0.02637  -0.02603   2.06350
   X35       -2.94450   0.00001   0.00000   0.00842   0.00754  -2.93696
   Y35       -2.66739   0.00003   0.00000   0.01425   0.01342  -2.65396
   Z35        4.66615  -0.00004   0.00000  -0.01780  -0.01796   4.64819
   X36       -5.25949  -0.00006   0.00000   0.00519   0.00444  -5.25505
   Y36       -4.18261  -0.00002   0.00000   0.01861   0.01759  -4.16502
   Z36        4.61575   0.00004   0.00000  -0.00454  -0.00547   4.61028
   X37       -0.52599   0.00002   0.00000   0.00638   0.00558  -0.52041
   Y37       -3.98352   0.00003   0.00000   0.01054   0.00984  -3.97368
   Z37        4.91317  -0.00004   0.00000  -0.01761  -0.01784   4.89533
   X38       -1.28800   0.00004   0.00000  -0.00025  -0.00117  -1.28917
   Y38        4.59761  -0.00001   0.00000   0.00729   0.00790   4.60551
   Z38        0.29232   0.00002   0.00000   0.02540   0.02762   0.31995
   X39       -0.34049   0.00001   0.00000  -0.00311  -0.00364  -0.34413
   Y39        3.54129   0.00002   0.00000   0.02017   0.02153   3.56282
   Z39       -1.94481  -0.00001   0.00000   0.01792   0.01996  -1.92485
   X40       -1.71742   0.00000   0.00000  -0.01288  -0.01312  -1.73054
   Y40        3.72525   0.00003   0.00000   0.02058   0.02249   3.74774
   Z40       -4.18459   0.00004   0.00000   0.02393   0.02584  -4.15875
   X41       -4.06420  -0.00003   0.00000  -0.02030  -0.02064  -4.08484
   Y41        4.92421   0.00002   0.00000   0.00667   0.00839   4.93260
   Z41       -4.23541   0.00004   0.00000   0.03762   0.03956  -4.19584
   X42       -5.02884   0.00001   0.00000  -0.01789  -0.01862  -5.04746
   Y42        5.95719  -0.00003   0.00000  -0.00783  -0.00686   5.95033
   Z42       -2.01335   0.00006   0.00000   0.04536   0.04748  -1.96587
   X43       -3.64207   0.00000   0.00000  -0.00784  -0.00886  -3.65092
   Y43        5.79477  -0.00003   0.00000  -0.00718  -0.00676   5.78801
   Z43        0.22183   0.00003   0.00000   0.03904   0.04130   0.26313
   X44        1.43143  -0.00002   0.00000   0.00336   0.00291   1.43434
   Y44        2.49680   0.00002   0.00000   0.03019   0.03168   2.52848
   Z44       -1.84961  -0.00003   0.00000   0.00666   0.00864  -1.84097
   X45       -0.94003  -0.00001   0.00000  -0.01477  -0.01471  -0.95474
   Y45        2.93153   0.00004   0.00000   0.03213   0.03463   2.96616
   Z45       -5.91530   0.00000   0.00000   0.01774   0.01952  -5.89577
   X46       -5.12522  -0.00003   0.00000  -0.02796  -0.02807  -5.15329
   Y46        5.06456   0.00003   0.00000   0.00725   0.00940   5.07396
   Z46       -5.98762   0.00005   0.00000   0.04232   0.04416  -5.94346
   X47       -6.85581  -0.00001   0.00000  -0.02375  -0.02456  -6.88037
   Y47        6.89421  -0.00002   0.00000  -0.01924  -0.01842   6.87579
   Z47       -2.02031   0.00007   0.00000   0.05637   0.05852  -1.96179
   X48       -4.40660   0.00000   0.00000  -0.00591  -0.00723  -4.41382
   Y48        6.61175  -0.00005   0.00000  -0.01852  -0.01868   6.59308
   Z48        1.94731   0.00007   0.00000   0.04527   0.04767   1.99497
   X49        1.03600  -0.00023   0.00000   0.00453   0.00338   1.03939
   Y49        2.13248   0.00024   0.00000   0.01094   0.01077   2.14325
   Z49        3.56138   0.00006   0.00000   0.02466   0.02646   3.58784
   X50       -1.21419  -0.00021   0.00000   0.00736   0.00665  -1.20754
   Y50       -0.06947  -0.00030   0.00000  -0.00622  -0.00604  -0.07550
   Z50        1.80325  -0.00011   0.00000  -0.03702  -0.03618   1.76707
   X51        3.57141   0.00041   0.00000  -0.00897  -0.00990   3.56152
   Y51        0.98551  -0.00016   0.00000  -0.00764  -0.00731   0.97820
   Z51        2.60136   0.00012   0.00000   0.00966   0.01146   2.61282
   X52        3.25830  -0.00022   0.00000  -0.03529  -0.03583   3.22247
   Y52       -0.03715   0.00002   0.00000  -0.01424  -0.01328  -0.05043
   Z52        0.40588   0.00002   0.00000   0.01648   0.01792   0.42380
   X53        4.04751  -0.00004   0.00000  -0.00319  -0.00423   4.04328
   Y53       -0.73595   0.00003   0.00000  -0.00246  -0.00268  -0.73863
   Z53        4.59188  -0.00004   0.00000   0.01257   0.01392   4.60580
   X54        2.73481   0.00001   0.00000  -0.01203  -0.01294   2.72187
   Y54       -2.01796   0.00000   0.00000   0.00470   0.00441  -2.01355
   Z54        4.43851   0.00004   0.00000   0.02864   0.02943   4.46794
   X55        5.63157  -0.00004   0.00000   0.00548   0.00435   5.63593
   Y55        3.03717   0.00002   0.00000  -0.01926  -0.01881   3.01836
   Z55        2.83861  -0.00003   0.00000  -0.01599  -0.01331   2.82531
   X56        5.21230   0.00005   0.00000   0.03044   0.02900   5.24130
   Y56        4.28034  -0.00002   0.00000  -0.01324  -0.01331   4.26703
   Z56        4.44501  -0.00003   0.00000  -0.01421  -0.01120   4.43381
   X57        7.37912  -0.00006   0.00000   0.00359   0.00249   7.38161
   Y57        2.03765  -0.00005   0.00000  -0.03012  -0.02967   2.00799
   Z57        3.33937  -0.00004   0.00000  -0.03172  -0.02909   3.31028
   X58        0.18525  -0.00003   0.00000   0.01010   0.00885   0.19410
   Y58        4.51023  -0.00006   0.00000   0.01072   0.01071   4.52094
   Z58        2.77149   0.00003   0.00000   0.01936   0.02176   2.79326
   X59       -1.08157   0.00004   0.00000   0.01925   0.01774  -1.06382
   Y59        5.21712  -0.00003   0.00000   0.01949   0.01893   5.23605
   Z59        4.26137   0.00003   0.00000   0.02285   0.02529   4.28666
   X60        1.75459   0.00003   0.00000   0.01418   0.01283   1.76742
   Y60        5.86796   0.00000   0.00000   0.00516   0.00532   5.87328
   Z60        2.66924   0.00001   0.00000   0.00772   0.01074   2.67998
   X61       -3.06058   0.00002   0.00000   0.01807   0.01665  -3.04393
   Y61       -0.42851   0.00002   0.00000   0.02537   0.02379  -0.40473
   Z61        7.16883  -0.00003   0.00000  -0.02709  -0.02660   7.14223
   X62       -1.39347   0.00001   0.00000   0.02078   0.01930  -1.37417
   Y62        0.77048   0.00003   0.00000   0.02026   0.01889   0.78937
   Z62        6.92246   0.00002   0.00000  -0.03345  -0.03238   6.89009
   X63       -4.81107   0.00001   0.00000   0.02053   0.01905  -4.79202
   Y63        0.64767   0.00002   0.00000   0.02907   0.02739   0.67506
   Z63        7.00066  -0.00003   0.00000  -0.02927  -0.02870   6.97196
   X64       -2.99232  -0.00001   0.00000   0.01732   0.01575  -2.97658
   Y64       -1.46522   0.00002   0.00000   0.03249   0.03038  -1.43484
   Z64        8.94999  -0.00001   0.00000  -0.02288  -0.02268   8.92731
   X65        6.09304  -0.00001   0.00000  -0.00789  -0.00882   6.08422
   Y65        4.56630  -0.00002   0.00000  -0.02702  -0.02581   4.54049
   Z65        0.43568  -0.00001   0.00000  -0.02354  -0.02034   0.41534
   X66        6.63275  -0.00005   0.00000  -0.03911  -0.03972   6.59303
   Y66        3.26832  -0.00003   0.00000  -0.03431  -0.03260   3.23572
   Z66       -1.08540  -0.00004   0.00000  -0.02844  -0.02555  -1.11096
   X67        4.34758  -0.00001   0.00000  -0.00640  -0.00732   4.34026
   Y67        5.47138   0.00001   0.00000  -0.00988  -0.00863   5.46275
   Z67       -0.21794  -0.00000   0.00000  -0.00393  -0.00069  -0.21863
   X68        8.13223   0.00003   0.00000   0.01759   0.01645   8.14868
   Y68        6.57313  -0.00004   0.00000  -0.04785  -0.04657   6.52656
   Z68        0.81113  -0.00006   0.00000  -0.04988  -0.04580   0.76532
   X69        8.50110   0.00002   0.00000   0.00794   0.00694   8.50805
   Y69        7.63037  -0.00005   0.00000  -0.05310  -0.05127   7.57911
   Z69       -0.92776  -0.00004   0.00000  -0.05511  -0.05067  -0.97843
   X70        7.57034   0.00005   0.00000   0.04956   0.04810   7.61844
   Y70        7.93097  -0.00004   0.00000  -0.04084  -0.04004   7.89093
   Z70        2.27009  -0.00002   0.00000  -0.04403  -0.03962   2.23047
   X71        9.91243   0.00003   0.00000   0.01591   0.01477   9.92719
   Y71        5.71130  -0.00008   0.00000  -0.06619  -0.06494   5.64636
   Z71        1.42432  -0.00006   0.00000  -0.07060  -0.06655   1.35777
   X72        9.14550  -0.00000   0.00000  -0.00271  -0.00274   9.14276
   Y72       -4.43196   0.00002   0.00000   0.01651   0.01827  -4.41369
   Z72       -0.57576   0.00002   0.00000   0.02325   0.02419  -0.55157
   X73       10.27176  -0.00001   0.00000  -0.00672  -0.00699  10.26477
   Y73       -4.35353   0.00001   0.00000   0.01639   0.01773  -4.33580
   Z73        1.15058   0.00002   0.00000   0.02586   0.02698   1.17755
   X74       10.03356  -0.00001   0.00000   0.00209   0.00235  10.03591
   Y74       -5.76858   0.00003   0.00000   0.01910   0.02133  -5.74725
   Z74       -1.88472   0.00002   0.00000   0.02389   0.02455  -1.86017
   X75        8.79252  -0.00002   0.00000  -0.00360  -0.00369   8.78883
   Y75       -1.84736  -0.00001   0.00000   0.01718   0.01928  -1.82808
   Z75       -1.81879   0.00003   0.00000   0.02502   0.02669  -1.79210
   X76        8.28560   0.00002   0.00000  -0.00781  -0.00821   8.27739
   Y76       -0.46618   0.00002   0.00000   0.01512   0.01674  -0.44943
   Z76       -0.36742   0.00002   0.00000   0.02548   0.02748  -0.33994
   X77       10.44816  -0.00001   0.00000  -0.00239  -0.00239  10.44577
   Y77       -1.18652   0.00002   0.00000   0.02028   0.02283  -1.16369
   Z77       -2.85870   0.00003   0.00000   0.02894   0.03102  -2.82768
         Item               Value     Threshold  Converged?
 Maximum Force            0.000405     0.000450     YES
 RMS     Force            0.000062     0.000300     YES
 Maximum Displacement     0.066550     0.001800     NO 
 RMS     Displacement     0.019731     0.001200     NO 
 Predicted change in Energy=-9.460377D-05
 GradGradGradGradGradGradGradGradGradGradGradGradGradGradGradGradGradGrad

 Leave Link  103 at Thu Feb  7 10:43:04 2019, MaxMem=   104857600 cpu:              31.2 elap:               1.4
 (Enter /home/xinyan/g16/l9999.exe)
 1\1\GINC-TSE4\Force\RM062X\6-31G(d)\C27H41N3O5S1\STEVETSE\07-Feb-2019\
 0\\#p M062X/6-31G* em=gd3 force int=ultrafine\\Title\\0,1\C,-4.98677,0
 .23182,-0.42746\C,-5.13305,-1.04708,-1.25713\C,-3.78045,-1.48002,-1.83
 538\C,-2.79682,-1.70124,-0.69067\C,-2.62093,-0.40526,0.13725\C,-3.9685
 ,0.05389,0.70205\H,-3.87453,-2.39253,-2.43357\H,-5.5318,-1.85206,-0.62
 592\H,-5.84793,-0.89566,-2.07187\H,-4.65407,1.04885,-1.08217\H,-5.9565
 9,0.5256,-0.01332\H,-3.18023,-2.48654,-0.03105\H,-2.27426,0.37042,-0.5
 5772\H,-4.3314,-0.68106,1.4285\H,-3.80841,1.00173,1.22817\H,-3.41927,-
 0.68044,-2.49603\N,-1.45625,-2.15223,-1.11947\C,-0.76893,-1.46875,-2.0
 7358\C,-0.76168,-2.96357,-0.27851\C,0.58419,-1.54597,-2.19262\H,-1.358
 09,-0.83095,-2.72006\C,0.59287,-3.07951,-0.32473\H,-1.34988,-3.47351,0
 .47653\C,1.34255,-2.28214,-1.23309\H,1.07362,-0.97448,-2.96993\H,1.076
 16,-3.69593,0.41989\N,2.66878,-2.23696,-1.19031\C,3.39912,-2.75499,-0.
 02221\H,3.26899,-3.83736,0.06628\H,3.01291,-2.2442,0.8713\C,3.43287,-1
 .17349,-1.86477\H,3.70737,-1.49619,-2.87686\H,2.82693,-0.26545,-1.8979
 7\N,-1.54437,-0.51495,1.10573\S,-1.55816,-1.41152,2.46922\O,-2.7832,-2
 .21334,2.44255\O,-0.27834,-2.10799,2.59994\C,-0.68158,2.43295,0.15469\
 C,-0.18018,1.87397,-1.02915\C,-0.90882,1.97132,-2.21439\C,-2.15068,2.6
 0578,-2.24128\C,-2.66115,3.15241,-1.06542\C,-1.9273,3.06646,0.11739\H,
 0.75748,1.32125,-0.97877\H,-0.49744,1.5513,-3.13024\H,-2.71215,2.68005
 ,-3.16851\H,-3.62794,3.64826,-1.0691\H,-2.33187,3.49879,1.03047\O,0.54
 823,1.12846,1.8846\H,-0.64252,-0.03676,0.95424\C,1.88991,0.52151,1.376
 58\O,1.72422,-0.01966,0.21478\O,2.14185,-0.38945,2.42992\H,1.4472,-1.0
 6786,2.34876\C,2.9801,1.6072,1.50213\H,2.75823,2.26506,2.3522\H,3.9048
 6,1.07828,1.76712\C,0.09803,2.38671,1.46661\H,-0.57234,2.76078,2.25502
 \H,0.92849,3.10519,1.4125\C,-1.61959,-0.22676,3.79358\H,-0.73739,0.407
 72,3.66321\H,-2.54591,0.34273,3.70459\H,-1.58347,-0.77536,4.73613\C,3.
 2243,2.41638,0.23055\H,3.5099,1.72952,-0.57437\H,2.30064,2.89533,-0.11
 533\C,4.30339,3.47835,0.42923\H,4.49859,4.03782,-0.49095\H,4.00605,4.1
 9689,1.20128\H,5.24543,3.02229,0.75372\C,4.83959,-2.34529,-0.30468\H,5
 .43558,-2.30379,0.60886\H,5.30953,-3.0526,-0.99735\C,4.6528,-0.97758,-
 0.96246\H,4.38455,-0.24669,-0.19443\H,5.52893,-0.62788,-1.51276\\Versi
 on=ES64L-G16RevA.03\State=1-A\HF=-1991.3557872\RMSD=5.221e-09\RMSF=6.2
 03e-05\Dipole=-1.3944553,-0.6256518,-2.2887955\Quadrupole=6.1028971,-4
 .8605316,-1.2423655,-9.7435191,-3.3292311,7.7471149\PG=C01 [X(C27H41N3
 O5S1)]\\@


 IF NO USE IS MADE OF THE LABOR OF PAST AGES,
 THE WORLD MUST REMAIN ALWAYS IN THE INFANCY OF KNOWLEDGE.

                          -- CICERO
 Job cpu time:       0 days  1 hours 23 minutes 42.3 seconds.
 Elapsed time:       0 days  0 hours  3 minutes 31.4 seconds.
 File lengths (MBytes):  RWF=    216 Int=      0 D2E=      0 Chk=     25 Scr=      1
 Normal termination of Gaussian 16 at Thu Feb  7 10:43:05 2019.
