 Entering Gaussian System, Link 0=g16
 Input=C27N3H41SO5-17.gjf
 Output=C27N3H41SO5-17.log
 Initial command:
 /home/xinyan/g16/l1.exe "/local/home/tmp/Gau-8283.inp" -scrdir="/local/home/tmp/"
 Entering Link 1 = /home/xinyan/g16/l1.exe PID=      8284.
  
 Copyright (c) 1988,1990,1992,1993,1995,1998,2003,2009,2016,
            Gaussian, Inc.  All Rights Reserved.
  
 This is part of the Gaussian(R) 16 program.  It is based on
 the Gaussian(R) 09 system (copyright 2009, Gaussian, Inc.),
 the Gaussian(R) 03 system (copyright 2003, Gaussian, Inc.),
 the Gaussian(R) 98 system (copyright 1998, Gaussian, Inc.),
 the Gaussian(R) 94 system (copyright 1995, Gaussian, Inc.),
 the Gaussian 92(TM) system (copyright 1992, Gaussian, Inc.),
 the Gaussian 90(TM) system (copyright 1990, Gaussian, Inc.),
 the Gaussian 88(TM) system (copyright 1988, Gaussian, Inc.),
 the Gaussian 86(TM) system (copyright 1986, Carnegie Mellon
 University), and the Gaussian 82(TM) system (copyright 1983,
 Carnegie Mellon University). Gaussian is a federally registered
 trademark of Gaussian, Inc.
  
 This software contains proprietary and confidential information,
 including trade secrets, belonging to Gaussian, Inc.
  
 This software is provided under written license and may be
 used, copied, transmitted, or stored only in accord with that
 written license.
  
 The following legend is applicable only to US Government
 contracts under FAR:
  
                    RESTRICTED RIGHTS LEGEND
  
 Use, reproduction and disclosure by the US Government is
 subject to restrictions as set forth in subparagraphs (a)
 and (c) of the Commercial Computer Software - Restricted
 Rights clause in FAR 52.227-19.
  
 Gaussian, Inc.
 340 Quinnipiac St., Bldg. 40, Wallingford CT 06492
  
  
 ---------------------------------------------------------------
 Warning -- This program may not be used in any manner that
 competes with the business of Gaussian, Inc. or will provide
 assistance to any competitor of Gaussian, Inc.  The licensee
 of this program is prohibited from giving any competitor of
 Gaussian, Inc. access to this program.  By using this program,
 the user acknowledges that Gaussian, Inc. is engaged in the
 business of creating and licensing software in the field of
 computational chemistry and represents and warrants to the
 licensee that it is not a competitor of Gaussian, Inc. and that
 it will not use this program in any manner prohibited above.
 ---------------------------------------------------------------
  

 Cite this work as:
 Gaussian 16, Revision A.03,
 M. J. Frisch, G. W. Trucks, H. B. Schlegel, G. E. Scuseria, 
 M. A. Robb, J. R. Cheeseman, G. Scalmani, V. Barone, 
 G. A. Petersson, H. Nakatsuji, X. Li, M. Caricato, A. V. Marenich, 
 J. Bloino, B. G. Janesko, R. Gomperts, B. Mennucci, H. P. Hratchian, 
 J. V. Ortiz, A. F. Izmaylov, J. L. Sonnenberg, D. Williams-Young, 
 F. Ding, F. Lipparini, F. Egidi, J. Goings, B. Peng, A. Petrone, 
 T. Henderson, D. Ranasinghe, V. G. Zakrzewski, J. Gao, N. Rega, 
 G. Zheng, W. Liang, M. Hada, M. Ehara, K. Toyota, R. Fukuda, 
 J. Hasegawa, M. Ishida, T. Nakajima, Y. Honda, O. Kitao, H. Nakai, 
 T. Vreven, K. Throssell, J. A. Montgomery, Jr., J. E. Peralta, 
 F. Ogliaro, M. J. Bearpark, J. J. Heyd, E. N. Brothers, K. N. Kudin, 
 V. N. Staroverov, T. A. Keith, R. Kobayashi, J. Normand, 
 K. Raghavachari, A. P. Rendell, J. C. Burant, S. S. Iyengar, 
 J. Tomasi, M. Cossi, J. M. Millam, M. Klene, C. Adamo, R. Cammi, 
 J. W. Ochterski, R. L. Martin, K. Morokuma, O. Farkas, 
 J. B. Foresman, and D. J. Fox, Gaussian, Inc., Wallingford CT, 2016.
 
 ******************************************
 Gaussian 16:  ES64L-G16RevA.03 25-Dec-2016
                 7-Feb-2019 
 ******************************************
 %nproc=24
 Will use up to   24 processors via shared memory.
 ------------------------------------------
 #p M062X/6-31G* em=gd3 force int=ultrafine
 ------------------------------------------
 1/10=7,30=1,38=1/1,3;
 2/12=2,17=6,18=5,40=1/2;
 3/5=1,6=6,7=1,11=2,25=1,30=1,71=1,74=-55,75=-5,124=31/1,2,3;
 4//1;
 5/5=2,38=5/2;
 6/7=2,8=2,9=2,10=2,28=1/1;
 7/29=1/1,2,3,16;
 1/10=7,30=1/3;
 99//99;
 Leave Link    1 at Thu Feb  7 09:23:53 2019, MaxMem=           0 cpu:               2.5 elap:               0.1
 (Enter /home/xinyan/g16/l101.exe)
 -----
 Title
 -----
 Symbolic Z-matrix:
 Charge =  0 Multiplicity = 1
 C                    -4.97385   0.25169  -0.38714 
 C                    -5.1315   -1.02091  -1.22436 
 C                    -3.78358  -1.4592   -1.80973 
 C                    -2.79794  -1.69758  -0.67009 
 C                    -2.61141  -0.40969   0.16827 
 C                    -3.95407   0.05807   0.73817 
 H                    -3.8863   -2.36559  -2.41577 
 H                    -5.53404  -1.82708  -0.59708 
 H                    -5.84759  -0.8593   -2.03608 
 H                    -4.63567   1.07014  -1.03738 
 H                    -5.9404    0.55073   0.03085 
 H                    -3.18412  -2.48657  -0.01655 
 H                    -2.25848   0.36707  -0.52266 
 H                    -4.3207   -0.67777   1.46216 
 H                    -3.78393   1.00186   1.26894 
 H                    -3.41875  -0.65601  -2.464 
 N                    -1.46109  -2.15323  -1.10773 
 C                    -0.7781   -1.47323  -2.06669 
 C                    -0.76261  -2.96461  -0.27015 
 C                     0.57432  -1.55352  -2.19444 
 H                    -1.36955  -0.83537  -2.71074 
 C                     0.59157  -3.08493  -0.3258 
 H                    -1.34701  -3.47336   0.48863 
 C                     1.33766  -2.29237  -1.24132 
 H                     1.05966  -0.98485  -2.97649 
 H                     1.0777   -3.70282   0.41582 
 N                     2.66482  -2.25329  -1.21076 
 C                     3.40346  -2.77553  -0.05017 
 H                     3.26869  -3.85728   0.03915 
 H                     3.02776  -2.26437   0.8474 
 C                     3.42935  -1.19553  -1.89439 
 H                     3.6922   -1.52217  -2.90833 
 H                     2.83029  -0.2829   -1.92421 
 N                    -1.53151  -0.54348   1.12935 
 S                    -1.55484  -1.44485   2.48717 
 O                    -2.77458  -2.25475   2.44922 
 O                    -0.27199  -2.13522   2.62422 
 C                    -0.68436   2.44571   0.1099 
 C                    -0.17018   1.84242  -1.04565 
 C                    -0.87135   1.9245   -2.24823 
 C                    -2.10034   2.58082  -2.31638 
 C                    -2.62447   3.16796  -1.16614 
 C                    -1.91618   3.10159   0.03335 
 H                     0.75556   1.27193  -0.96022 
 H                    -0.45046   1.4732   -3.14473 
 H                    -2.64157   2.64106  -3.25651 
 H                    -3.58203   3.68     -1.20319 
 H                    -2.33026   3.56401   0.9272 
 O                     0.51327   1.12067   1.81738 
 H                    -0.66697   0.02606   1.05576 
 C                     1.9204    0.51326   1.36737 
 O                     1.8104   -0.03255   0.2102 
 O                     2.11994  -0.37451   2.44335 
 H                     1.44606  -1.06988   2.33355 
 C                     2.96859   1.62897   1.53242 
 H                     2.70121   2.27853   2.37526 
 H                     3.90011   1.12641   1.82389 
 C                     0.06942   2.39058   1.43375 
 H                    -0.61393   2.75171   2.21854 
 H                     0.9003    3.11051   1.40543 
 C                    -1.62479  -0.26381   3.81578 
 H                    -0.74972   0.38029   3.68297 
 H                    -2.55677   0.29727   3.73242 
 H                    -1.57719  -0.81181   4.75809 
 C                     3.22223   2.44169   0.26495 
 H                     3.57218   1.76437  -0.52237 
 H                     2.28887   2.86996  -0.11935 
 C                     4.23816   3.55789   0.49528 
 H                     4.44119   4.1188   -0.42227 
 H                     3.87486   4.26689   1.24778 
 H                     5.18835   3.15263   0.86066 
 C                     4.84344  -2.373    -0.34568 
 H                     5.44814  -2.33438   0.56227 
 H                     5.30314  -3.08362  -1.04183 
 C                     4.6587   -1.00503  -1.0037 
 H                     4.40023  -0.27071  -0.23554 
 H                     5.53198  -0.66262  -1.56304 
 
 ITRead=  0  0  0  0  0  0  0  0  0  0  0  0  0  0  0  0  0  0  0  0
 ITRead=  0  0  0  0  0  0  0  0  0  0  0  0  0  0  0  0  0  0  0  0
 ITRead=  0  0  0  0  0  0  0  0  0  0  0  0  0  0  0  0  0  0  0  0
 ITRead=  0  0  0  0  0  0  0  0  0  0  0  0  0  0  0  0  0
 MicOpt= -1 -1 -1 -1 -1 -1 -1 -1 -1 -1 -1 -1 -1 -1 -1 -1 -1 -1 -1 -1
 MicOpt= -1 -1 -1 -1 -1 -1 -1 -1 -1 -1 -1 -1 -1 -1 -1 -1 -1 -1 -1 -1
 MicOpt= -1 -1 -1 -1 -1 -1 -1 -1 -1 -1 -1 -1 -1 -1 -1 -1 -1 -1 -1 -1
 MicOpt= -1 -1 -1 -1 -1 -1 -1 -1 -1 -1 -1 -1 -1 -1 -1 -1 -1
 NAtoms=     77 NQM=       77 NQMF=       0 NMMI=      0 NMMIF=      0
                NMic=       0 NMicF=      0.
                    Isotopes and Nuclear Properties:
 (Nuclear quadrupole moments (NQMom) in fm**2, nuclear magnetic moments (NMagM)
  in nuclear magnetons)

  Atom         1           2           3           4           5           6           7           8           9          10
 IAtWgt=          12          12          12          12          12          12           1           1           1           1
 AtmWgt=  12.0000000  12.0000000  12.0000000  12.0000000  12.0000000  12.0000000   1.0078250   1.0078250   1.0078250   1.0078250
 NucSpn=           0           0           0           0           0           0           1           1           1           1
 AtZEff=  -0.0000000  -0.0000000  -0.0000000  -0.0000000  -0.0000000  -0.0000000  -0.0000000  -0.0000000  -0.0000000  -0.0000000
 NQMom=    0.0000000   0.0000000   0.0000000   0.0000000   0.0000000   0.0000000   0.0000000   0.0000000   0.0000000   0.0000000
 NMagM=    0.0000000   0.0000000   0.0000000   0.0000000   0.0000000   0.0000000   2.7928460   2.7928460   2.7928460   2.7928460
 AtZNuc=   6.0000000   6.0000000   6.0000000   6.0000000   6.0000000   6.0000000   1.0000000   1.0000000   1.0000000   1.0000000

  Atom        11          12          13          14          15          16          17          18          19          20
 IAtWgt=           1           1           1           1           1           1          14          12          12          12
 AtmWgt=   1.0078250   1.0078250   1.0078250   1.0078250   1.0078250   1.0078250  14.0030740  12.0000000  12.0000000  12.0000000
 NucSpn=           1           1           1           1           1           1           2           0           0           0
 AtZEff=  -0.0000000  -0.0000000  -0.0000000  -0.0000000  -0.0000000  -0.0000000  -0.0000000  -0.0000000  -0.0000000  -0.0000000
 NQMom=    0.0000000   0.0000000   0.0000000   0.0000000   0.0000000   0.0000000   2.0440000   0.0000000   0.0000000   0.0000000
 NMagM=    2.7928460   2.7928460   2.7928460   2.7928460   2.7928460   2.7928460   0.4037610   0.0000000   0.0000000   0.0000000
 AtZNuc=   1.0000000   1.0000000   1.0000000   1.0000000   1.0000000   1.0000000   7.0000000   6.0000000   6.0000000   6.0000000

  Atom        21          22          23          24          25          26          27          28          29          30
 IAtWgt=           1          12           1          12           1           1          14          12           1           1
 AtmWgt=   1.0078250  12.0000000   1.0078250  12.0000000   1.0078250   1.0078250  14.0030740  12.0000000   1.0078250   1.0078250
 NucSpn=           1           0           1           0           1           1           2           0           1           1
 AtZEff=  -0.0000000  -0.0000000  -0.0000000  -0.0000000  -0.0000000  -0.0000000  -0.0000000  -0.0000000  -0.0000000  -0.0000000
 NQMom=    0.0000000   0.0000000   0.0000000   0.0000000   0.0000000   0.0000000   2.0440000   0.0000000   0.0000000   0.0000000
 NMagM=    2.7928460   0.0000000   2.7928460   0.0000000   2.7928460   2.7928460   0.4037610   0.0000000   2.7928460   2.7928460
 AtZNuc=   1.0000000   6.0000000   1.0000000   6.0000000   1.0000000   1.0000000   7.0000000   6.0000000   1.0000000   1.0000000

  Atom        31          32          33          34          35          36          37          38          39          40
 IAtWgt=          12           1           1          14          32          16          16          12          12          12
 AtmWgt=  12.0000000   1.0078250   1.0078250  14.0030740  31.9720718  15.9949146  15.9949146  12.0000000  12.0000000  12.0000000
 NucSpn=           0           1           1           2           0           0           0           0           0           0
 AtZEff=  -0.0000000  -0.0000000  -0.0000000  -0.0000000  -0.0000000  -0.0000000  -0.0000000  -0.0000000  -0.0000000  -0.0000000
 NQMom=    0.0000000   0.0000000   0.0000000   2.0440000   0.0000000   0.0000000   0.0000000   0.0000000   0.0000000   0.0000000
 NMagM=    0.0000000   2.7928460   2.7928460   0.4037610   0.0000000   0.0000000   0.0000000   0.0000000   0.0000000   0.0000000
 AtZNuc=   6.0000000   1.0000000   1.0000000   7.0000000  16.0000000   8.0000000   8.0000000   6.0000000   6.0000000   6.0000000

  Atom        41          42          43          44          45          46          47          48          49          50
 IAtWgt=          12          12          12           1           1           1           1           1          16           1
 AtmWgt=  12.0000000  12.0000000  12.0000000   1.0078250   1.0078250   1.0078250   1.0078250   1.0078250  15.9949146   1.0078250
 NucSpn=           0           0           0           1           1           1           1           1           0           1
 AtZEff=  -0.0000000  -0.0000000  -0.0000000  -0.0000000  -0.0000000  -0.0000000  -0.0000000  -0.0000000  -0.0000000  -0.0000000
 NQMom=    0.0000000   0.0000000   0.0000000   0.0000000   0.0000000   0.0000000   0.0000000   0.0000000   0.0000000   0.0000000
 NMagM=    0.0000000   0.0000000   0.0000000   2.7928460   2.7928460   2.7928460   2.7928460   2.7928460   0.0000000   2.7928460
 AtZNuc=   6.0000000   6.0000000   6.0000000   1.0000000   1.0000000   1.0000000   1.0000000   1.0000000   8.0000000   1.0000000

  Atom        51          52          53          54          55          56          57          58          59          60
 IAtWgt=          12          16          16           1          12           1           1          12           1           1
 AtmWgt=  12.0000000  15.9949146  15.9949146   1.0078250  12.0000000   1.0078250   1.0078250  12.0000000   1.0078250   1.0078250
 NucSpn=           0           0           0           1           0           1           1           0           1           1
 AtZEff=  -0.0000000  -0.0000000  -0.0000000  -0.0000000  -0.0000000  -0.0000000  -0.0000000  -0.0000000  -0.0000000  -0.0000000
 NQMom=    0.0000000   0.0000000   0.0000000   0.0000000   0.0000000   0.0000000   0.0000000   0.0000000   0.0000000   0.0000000
 NMagM=    0.0000000   0.0000000   0.0000000   2.7928460   0.0000000   2.7928460   2.7928460   0.0000000   2.7928460   2.7928460
 AtZNuc=   6.0000000   8.0000000   8.0000000   1.0000000   6.0000000   1.0000000   1.0000000   6.0000000   1.0000000   1.0000000

  Atom        61          62          63          64          65          66          67          68          69          70
 IAtWgt=          12           1           1           1          12           1           1          12           1           1
 AtmWgt=  12.0000000   1.0078250   1.0078250   1.0078250  12.0000000   1.0078250   1.0078250  12.0000000   1.0078250   1.0078250
 NucSpn=           0           1           1           1           0           1           1           0           1           1
 AtZEff=  -0.0000000  -0.0000000  -0.0000000  -0.0000000  -0.0000000  -0.0000000  -0.0000000  -0.0000000  -0.0000000  -0.0000000
 NQMom=    0.0000000   0.0000000   0.0000000   0.0000000   0.0000000   0.0000000   0.0000000   0.0000000   0.0000000   0.0000000
 NMagM=    0.0000000   2.7928460   2.7928460   2.7928460   0.0000000   2.7928460   2.7928460   0.0000000   2.7928460   2.7928460
 AtZNuc=   6.0000000   1.0000000   1.0000000   1.0000000   6.0000000   1.0000000   1.0000000   6.0000000   1.0000000   1.0000000

  Atom        71          72          73          74          75          76          77
 IAtWgt=           1          12           1           1          12           1           1
 AtmWgt=   1.0078250  12.0000000   1.0078250   1.0078250  12.0000000   1.0078250   1.0078250
 NucSpn=           1           0           1           1           0           1           1
 AtZEff=  -0.0000000  -0.0000000  -0.0000000  -0.0000000  -0.0000000  -0.0000000  -0.0000000
 NQMom=    0.0000000   0.0000000   0.0000000   0.0000000   0.0000000   0.0000000   0.0000000
 NMagM=    2.7928460   0.0000000   2.7928460   2.7928460   0.0000000   2.7928460   2.7928460
 AtZNuc=   1.0000000   6.0000000   1.0000000   1.0000000   6.0000000   1.0000000   1.0000000
 Leave Link  101 at Thu Feb  7 09:23:53 2019, MaxMem=   104857600 cpu:               5.1 elap:               0.2
 (Enter /home/xinyan/g16/l103.exe)

 GradGradGradGradGradGradGradGradGradGradGradGradGradGradGradGradGradGrad
 Berny optimization.
 Initialization pass.
 Trust Radius=3.00D-01 FncErr=1.00D-07 GrdErr=1.00D-07 EigMax=2.50D+02 EigMin=1.00D-04
 Number of steps in this run=      2 maximum allowed number of steps=      2.
 GradGradGradGradGradGradGradGradGradGradGradGradGradGradGradGradGradGrad

 Leave Link  103 at Thu Feb  7 09:23:53 2019, MaxMem=   104857600 cpu:               1.6 elap:               0.1
 (Enter /home/xinyan/g16/l202.exe)
 Stoichiometry    C27H41N3O5S
 Framework group  C1[X(C27H41N3O5S)]
 Deg. of freedom   225
 Full point group                 C1      NOp   1
 Largest Abelian subgroup         C1      NOp   1
 Largest concise Abelian subgroup C1      NOp   1
                         Standard orientation:                         
 ---------------------------------------------------------------------
 Center     Atomic      Atomic             Coordinates (Angstroms)
 Number     Number       Type             X           Y           Z
 ---------------------------------------------------------------------
      1          6           0       -4.851978    0.541781   -0.527199
      2          6           0       -5.029369   -0.732755   -1.357495
      3          6           0       -3.689897   -1.190175   -1.947601
      4          6           0       -2.701378   -1.435132   -0.811856
      5          6           0       -2.494918   -0.145654    0.019360
      6          6           0       -3.828852    0.341097    0.593829
      7          1           0       -3.806728   -2.098106   -2.548759
      8          1           0       -5.438437   -1.530990   -0.724319
      9          1           0       -5.747608   -0.566288   -2.166330
     10          1           0       -4.507234    1.352970   -1.183066
     11          1           0       -5.812665    0.854532   -0.105739
     12          1           0       -3.093743   -2.216264   -0.152587
     13          1           0       -2.136140    0.623477   -0.677071
     14          1           0       -4.200662   -0.386794    1.323193
     15          1           0       -3.644540    1.285249    1.119196
     16          1           0       -3.318711   -0.394588   -2.607561
     17          7           0       -1.372426   -1.909078   -1.254096
     18          6           0       -0.686169   -1.241982   -2.219765
     19          6           0       -0.679551   -2.724922   -0.416197
     20          6           0        0.664502   -1.339323   -2.354001
     21          1           0       -1.273135   -0.600030   -2.863851
     22          6           0        0.672764   -2.861969   -0.478152
     23          1           0       -1.266176   -3.222929    0.347974
     24          6           0        1.423705   -2.082886   -1.401242
     25          1           0        1.152683   -0.780306   -3.141226
     26          1           0        1.155163   -3.482211    0.263941
     27          7           0        2.751381   -2.059809   -1.377616
     28          6           0        3.489583   -2.585498   -0.218306
     29          1           0        3.342150   -3.665094   -0.123116
     30          1           0        3.124736   -2.065564    0.678702
     31          6           0        3.525172   -1.014675   -2.070187
     32          1           0        3.778821   -1.349284   -3.083873
     33          1           0        2.937091   -0.094977   -2.101337
     34          7           0       -1.411795   -0.288022    0.975569
     35         16           0       -1.439086   -1.182605    2.337796
     36          8           0       -2.668748   -1.977777    2.309930
     37          8           0       -0.164025   -1.887874    2.471632
     38          6           0       -0.533668    2.685784   -0.062494
     39          6           0       -0.032798    2.070821   -1.217737
     40          6           0       -0.739093    2.155733   -2.417117
     41          6           0       -1.960358    2.826626   -2.482165
     42          6           0       -2.471401    3.425535   -1.332104
     43          6           0       -1.757812    3.356231   -0.135925
     44          1           0        0.886374    1.489522   -1.134279
     45          1           0       -0.328328    1.695109   -3.313571
     46          1           0       -2.505643    2.888996   -3.419809
     47          1           0       -3.422852    3.949005   -1.366740
     48          1           0       -2.161646    3.827879    0.757791
     49          8           0        0.656549    1.354367    1.645210
     50          1           0       -0.540794    0.270604    0.894856
     51          6           0        2.053868    0.727761    1.190970
     52          8           0        1.931302    0.177860    0.037005
     53          8           0        2.248144   -0.157269    2.270166
     54          1           0        1.565316   -0.844901    2.167128
     55          6           0        3.116361    1.831406    1.345339
     56          1           0        2.861224    2.488152    2.186403
     57          1           0        4.043197    1.318936    1.634477
     58          6           0        0.226183    2.627753    1.257757
     59          1           0       -0.448689    3.000879    2.044270
     60          1           0        1.065586    3.337380    1.221762
     61          6           0       -1.487861    0.005472    3.661067
     62          1           0       -0.605730    0.638244    3.520724
     63          1           0       -2.413376    0.577448    3.579756
     64          1           0       -1.442074   -0.538601    4.605739
     65          6           0        3.373331    2.634973    0.072714
     66          1           0        3.710979    1.949728   -0.713118
     67          1           0        2.443276    3.072742   -0.308885
     68          6           0        4.403908    3.739809    0.292523
     69          1           0        4.609013    4.293859   -0.628726
     70          1           0        4.053116    4.456729    1.043452
     71          1           0        5.350974    3.324753    0.655007
     72          6           0        4.932806   -2.201919   -0.523058
     73          1           0        5.542590   -2.166362    0.381611
     74          1           0        5.380259   -2.921365   -1.218120
     75          6           0        4.761307   -0.834932   -1.186681
     76          1           0        4.515724   -0.093895   -0.420747
     77          1           0        5.635793   -0.505822   -1.752088
 ---------------------------------------------------------------------
 Rotational constants (GHZ):           0.1500222           0.0986312           0.0891936
 Leave Link  202 at Thu Feb  7 09:23:53 2019, MaxMem=   104857600 cpu:               2.4 elap:               0.1
 (Enter /home/xinyan/g16/l301.exe)
 Standard basis: 6-31G(d) (6D, 7F)
 Ernie: Thresh=  0.10000D-02 Tol=  0.10000D-05 Strict=F.
 There are   626 symmetry adapted cartesian basis functions of A   symmetry.
 There are   626 symmetry adapted basis functions of A   symmetry.
   626 basis functions,  1196 primitive gaussians,   626 cartesian basis functions
   140 alpha electrons      140 beta electrons
       nuclear repulsion energy      4951.8762927939 Hartrees.
 IExCor= 4336 DFT=T Ex+Corr=M062X ExCW=0 ScaHFX=  0.540000
 ScaDFX=  1.000000  1.000000  1.000000  1.000000 ScalE2=  1.000000  1.000000
 IRadAn=      5 IRanWt=     -1 IRanGd=            0 ICorTp=0 IEmpDi=131
 NAtoms=   77 NActive=   77 NUniq=   77 SFac= 1.00D+00 NAtFMM=   60 NAOKFM=T Big=T
 Integral buffers will be    131072 words long.
 Raffenetti 2 integral format.
 Two-electron integral symmetry is turned on.
 R6Disp:  Grimme-D3 Dispersion energy=       -0.0106978656 Hartrees.
 Nuclear repulsion after empirical dispersion term =     4951.8655949283 Hartrees.
 Leave Link  301 at Thu Feb  7 09:23:54 2019, MaxMem=   104857600 cpu:               3.0 elap:               0.2
 (Enter /home/xinyan/g16/l302.exe)
 NPDir=0 NMtPBC=     1 NCelOv=     1 NCel=       1 NClECP=     1 NCelD=      1
         NCelK=      1 NCelE2=     1 NClLst=     1 CellRange=     0.0.
 One-electron integrals computed using PRISM.
 One-electron integral symmetry used in STVInt
 PrsmSu:  requested number of processors reduced to:  23 ShMem   1 Linda.
 NBasis=   626 RedAO= T EigKep=  4.35D-04  NBF=   626
 NBsUse=   626 1.00D-06 EigRej= -1.00D+00 NBFU=   626
 Precomputing XC quadrature grid using
 IXCGrd= 4 IRadAn=           5 IRanWt=          -1 IRanGd=           0 AccXCQ= 0.00D+00.
 Generated NRdTot=       0 NPtTot=           0 NUsed=           0 NTot=          32
 NSgBfM=   617   617   617   617   617 MxSgAt=    77 MxSgA2=    77.
 Leave Link  302 at Thu Feb  7 09:23:57 2019, MaxMem=   104857600 cpu:              84.1 elap:               3.7
 (Enter /home/xinyan/g16/l303.exe)
 DipDrv:  MaxL=1.
 Leave Link  303 at Thu Feb  7 09:23:58 2019, MaxMem=   104857600 cpu:               4.3 elap:               0.2
 (Enter /home/xinyan/g16/l401.exe)
 ExpMin= 1.17D-01 ExpMax= 2.19D+04 ExpMxC= 3.30D+03 IAcc=3 IRadAn=         5 AccDes= 0.00D+00
 Harris functional with IExCor= 1009 and IRadAn=       5 diagonalized for initial guess.
 HarFok:  IExCor= 1009 AccDes= 0.00D+00 IRadAn=         5 IDoV= 1 UseB2=F ITyADJ=14
 ICtDFT=  3500011 ScaDFX=  1.000000  1.000000  1.000000  1.000000
 FoFCou: FMM=F IPFlag=           0 FMFlag=      100000 FMFlg1=        2001
         NFxFlg=           0 DoJE=T BraDBF=F KetDBF=T FulRan=T
         wScrn=  0.000000 ICntrl=       500 IOpCl=  0 I1Cent=   200000004 NGrid=           0
         NMat0=    1 NMatS0=      1 NMatT0=    0 NMatD0=    1 NMtDS0=    0 NMtDT0=    0
 Petite list used in FoFCou.
 Harris En= -1990.53615103682    
 JPrj=0 DoOrth=F DoCkMO=F.
 Leave Link  401 at Thu Feb  7 09:24:02 2019, MaxMem=   104857600 cpu:              98.5 elap:               4.1
 (Enter /home/xinyan/g16/l502.exe)
 Integral symmetry usage will be decided dynamically.
 Closed shell SCF:
 Using DIIS extrapolation, IDIIS=  1040.
 NGot=   104857600 LenX=   104051656 LenY=   103659154
 Requested convergence on RMS density matrix=1.00D-08 within 128 cycles.
 Requested convergence on MAX density matrix=1.00D-06.
 Requested convergence on             energy=1.00D-06.
 No special actions if energy rises.
 Fock matrices will be formed incrementally for  20 cycles.
 Integral accuracy reduced to 1.0D-05 until final iterations.

 Cycle   1  Pass 0  IDiag  1:
 FoFJK:  IHMeth= 1 ICntrl=       0 DoSepK=F KAlg= 0 I1Cent=           0 FoldK=F
 IRaf= 990000000 NMat=       1 IRICut=       1 DoRegI=T DoRafI=F ISym2E= 0 IDoP0=0 IntGTp=1.
 FoFCou: FMM=T IPFlag=           0 FMFlag=      100000 FMFlg1=        2001
         NFxFlg=           0 DoJE=F BraDBF=F KetDBF=F FulRan=T
         wScrn=  0.000000 ICntrl=         0 IOpCl=  0 I1Cent=           0 NGrid=           0
         NMat0=    1 NMatS0=      1 NMatT0=    0 NMatD0=    1 NMtDS0=    0 NMtDT0=    0
 Symmetry not used in FoFCou.
 FMM levels:  10  Number of levels for PrismC:   9
 E= -1990.28874137340    
 DIIS: error= 2.43D-02 at cycle   1 NSaved=   1.
 NSaved= 1 IEnMin= 1 EnMin= -1990.28874137340     IErMin= 1 ErrMin= 2.43D-02
 ErrMax= 2.43D-02  0.00D+00 EMaxC= 1.00D-01 BMatC= 1.25D+00 BMatP= 1.25D+00
 IDIUse=3 WtCom= 7.57D-01 WtEn= 2.43D-01
 Coeff-Com:  0.100D+01
 Coeff-En:   0.100D+01
 Coeff:      0.100D+01
 Gap=     0.359 Goal=   None    Shift=    0.000
 GapD=    0.359 DampG=1.000 DampE=0.500 DampFc=0.5000 IDamp=-1.
 Damping current iteration by 5.00D-01
 RMSDP=3.47D-03 MaxDP=3.46D-01              OVMax= 1.95D-01

 Cycle   2  Pass 0  IDiag  1:
 RMSU=  1.73D-03    CP:  9.89D-01
 E= -1990.80436177214     Delta-E=       -0.515620398741 Rises=F Damp=T
 DIIS: error= 8.80D-03 at cycle   2 NSaved=   2.
 NSaved= 2 IEnMin= 2 EnMin= -1990.80436177214     IErMin= 2 ErrMin= 8.80D-03
 ErrMax= 8.80D-03  0.00D+00 EMaxC= 1.00D-01 BMatC= 9.35D-02 BMatP= 1.25D+00
 IDIUse=3 WtCom= 9.12D-01 WtEn= 8.80D-02
 Coeff-Com: -0.259D-01 0.103D+01
 Coeff-En:   0.000D+00 0.100D+01
 Coeff:     -0.237D-01 0.102D+01
 Gap=     0.260 Goal=   None    Shift=    0.000
 RMSDP=8.63D-04 MaxDP=7.81D-02 DE=-5.16D-01 OVMax= 1.24D-01

 Cycle   3  Pass 0  IDiag  1:
 RMSU=  8.52D-04    CP:  9.82D-01  9.40D-01
 E= -1991.31341615937     Delta-E=       -0.509054387231 Rises=F Damp=F
 DIIS: error= 6.85D-03 at cycle   3 NSaved=   3.
 NSaved= 3 IEnMin= 3 EnMin= -1991.31341615937     IErMin= 3 ErrMin= 6.85D-03
 ErrMax= 6.85D-03  0.00D+00 EMaxC= 1.00D-01 BMatC= 5.08D-02 BMatP= 9.35D-02
 IDIUse=3 WtCom= 9.32D-01 WtEn= 6.85D-02
 Coeff-Com: -0.700D-01 0.442D+00 0.628D+00
 Coeff-En:   0.000D+00 0.000D+00 0.100D+01
 Coeff:     -0.652D-01 0.412D+00 0.653D+00
 Gap=     0.232 Goal=   None    Shift=    0.000
 RMSDP=5.14D-04 MaxDP=3.69D-02 DE=-5.09D-01 OVMax= 6.21D-02

 Cycle   4  Pass 0  IDiag  1:
 RMSU=  3.37D-04    CP:  9.85D-01  1.05D+00  6.00D-01
 E= -1991.34470990127     Delta-E=       -0.031293741896 Rises=F Damp=F
 DIIS: error= 4.00D-03 at cycle   4 NSaved=   4.
 NSaved= 4 IEnMin= 4 EnMin= -1991.34470990127     IErMin= 4 ErrMin= 4.00D-03
 ErrMax= 4.00D-03  0.00D+00 EMaxC= 1.00D-01 BMatC= 1.22D-02 BMatP= 5.08D-02
 IDIUse=3 WtCom= 9.60D-01 WtEn= 4.00D-02
 Coeff-Com: -0.278D-01 0.903D-01 0.356D+00 0.581D+00
 Coeff-En:   0.000D+00 0.000D+00 0.205D+00 0.795D+00
 Coeff:     -0.267D-01 0.867D-01 0.350D+00 0.590D+00
 Gap=     0.228 Goal=   None    Shift=    0.000
 RMSDP=2.08D-04 MaxDP=1.14D-02 DE=-3.13D-02 OVMax= 3.28D-02

 Cycle   5  Pass 0  IDiag  1:
 RMSU=  8.66D-05    CP:  9.84D-01  1.03D+00  7.32D-01  5.59D-01
 E= -1991.35485581767     Delta-E=       -0.010145916403 Rises=F Damp=F
 DIIS: error= 1.05D-03 at cycle   5 NSaved=   5.
 NSaved= 5 IEnMin= 5 EnMin= -1991.35485581767     IErMin= 5 ErrMin= 1.05D-03
 ErrMax= 1.05D-03  0.00D+00 EMaxC= 1.00D-01 BMatC= 6.10D-04 BMatP= 1.22D-02
 IDIUse=3 WtCom= 9.90D-01 WtEn= 1.05D-02
 Coeff-Com: -0.926D-02 0.215D-01 0.136D+00 0.290D+00 0.562D+00
 Coeff-En:   0.000D+00 0.000D+00 0.000D+00 0.000D+00 0.100D+01
 Coeff:     -0.916D-02 0.213D-01 0.134D+00 0.287D+00 0.567D+00
 Gap=     0.228 Goal=   None    Shift=    0.000
 RMSDP=5.15D-05 MaxDP=3.80D-03 DE=-1.01D-02 OVMax= 9.80D-03

 Cycle   6  Pass 0  IDiag  1:
 RMSU=  2.72D-05    CP:  9.84D-01  1.03D+00  7.29D-01  6.32D-01  5.87D-01
 E= -1991.35538522893     Delta-E=       -0.000529411264 Rises=F Damp=F
 DIIS: error= 3.30D-04 at cycle   6 NSaved=   6.
 NSaved= 6 IEnMin= 6 EnMin= -1991.35538522893     IErMin= 6 ErrMin= 3.30D-04
 ErrMax= 3.30D-04  0.00D+00 EMaxC= 1.00D-01 BMatC= 5.96D-05 BMatP= 6.10D-04
 IDIUse=3 WtCom= 9.97D-01 WtEn= 3.30D-03
 EnCoef did     2 forward-backward iterations
 Coeff-Com: -0.174D-02 0.172D-02 0.298D-01 0.821D-01 0.290D+00 0.598D+00
 Coeff-En:   0.000D+00 0.000D+00 0.000D+00 0.000D+00 0.252D-02 0.997D+00
 Coeff:     -0.174D-02 0.172D-02 0.298D-01 0.819D-01 0.289D+00 0.600D+00
 Gap=     0.229 Goal=   None    Shift=    0.000
 RMSDP=1.49D-05 MaxDP=8.66D-04 DE=-5.29D-04 OVMax= 2.54D-03

 Cycle   7  Pass 0  IDiag  1:
 RMSU=  9.28D-06    CP:  9.84D-01  1.03D+00  7.32D-01  6.32D-01  6.71D-01
                    CP:  6.79D-01
 E= -1991.35544166673     Delta-E=       -0.000056437794 Rises=F Damp=F
 DIIS: error= 4.41D-05 at cycle   7 NSaved=   7.
 NSaved= 7 IEnMin= 7 EnMin= -1991.35544166673     IErMin= 7 ErrMin= 4.41D-05
 ErrMax= 4.41D-05  0.00D+00 EMaxC= 1.00D-01 BMatC= 3.61D-06 BMatP= 5.96D-05
 IDIUse=1 WtCom= 1.00D+00 WtEn= 0.00D+00
 Coeff-Com:  0.188D-03-0.135D-02-0.156D-02 0.506D-02 0.685D-01 0.248D+00
 Coeff-Com:  0.681D+00
 Coeff:      0.188D-03-0.135D-02-0.156D-02 0.506D-02 0.685D-01 0.248D+00
 Coeff:      0.681D+00
 Gap=     0.228 Goal=   None    Shift=    0.000
 RMSDP=4.36D-06 MaxDP=2.27D-04 DE=-5.64D-05 OVMax= 5.59D-04

 Initial convergence to 1.0D-05 achieved.  Increase integral accuracy.
 Cycle   8  Pass 1  IDiag  1:
 E= -1991.35552167539     Delta-E=       -0.000080008660 Rises=F Damp=F
 DIIS: error= 1.79D-04 at cycle   1 NSaved=   1.
 NSaved= 1 IEnMin= 1 EnMin= -1991.35552167539     IErMin= 1 ErrMin= 1.79D-04
 ErrMax= 1.79D-04  0.00D+00 EMaxC= 1.00D-01 BMatC= 1.35D-05 BMatP= 1.35D-05
 IDIUse=3 WtCom= 9.98D-01 WtEn= 1.79D-03
 Coeff-Com:  0.100D+01
 Coeff-En:   0.100D+01
 Coeff:      0.100D+01
 Gap=     0.229 Goal=   None    Shift=    0.000
 RMSDP=4.36D-06 MaxDP=2.27D-04 DE=-8.00D-05 OVMax= 4.74D-04

 Cycle   9  Pass 1  IDiag  1:
 RMSU=  7.49D-05    CP:  1.00D+00
 E= -1991.35553409741     Delta-E=       -0.000012422017 Rises=F Damp=F
 DIIS: error= 1.94D-05 at cycle   2 NSaved=   2.
 NSaved= 2 IEnMin= 2 EnMin= -1991.35553409741     IErMin= 2 ErrMin= 1.94D-05
 ErrMax= 1.94D-05  0.00D+00 EMaxC= 1.00D-01 BMatC= 6.61D-07 BMatP= 1.35D-05
 IDIUse=1 WtCom= 1.00D+00 WtEn= 0.00D+00
 Coeff-Com:  0.537D-01 0.946D+00
 Coeff:      0.537D-01 0.946D+00
 Gap=     0.228 Goal=   None    Shift=    0.000
 RMSDP=3.78D-06 MaxDP=1.99D-04 DE=-1.24D-05 OVMax= 3.77D-04

 Cycle  10  Pass 1  IDiag  1:
 RMSU=  3.07D-06    CP:  1.00D+00  1.03D+00
 E= -1991.35553379843     Delta-E=        0.000000298978 Rises=F Damp=F
 DIIS: error= 3.37D-05 at cycle   3 NSaved=   3.
 NSaved= 3 IEnMin= 2 EnMin= -1991.35553409741     IErMin= 2 ErrMin= 1.94D-05
 ErrMax= 3.37D-05  0.00D+00 EMaxC= 1.00D-01 BMatC= 1.05D-06 BMatP= 6.61D-07
 IDIUse=1 WtCom= 1.00D+00 WtEn= 0.00D+00
 Coeff-Com: -0.148D-01 0.564D+00 0.451D+00
 Coeff:     -0.148D-01 0.564D+00 0.451D+00
 Gap=     0.229 Goal=   None    Shift=    0.000
 RMSDP=1.69D-06 MaxDP=1.21D-04 DE= 2.99D-07 OVMax= 2.29D-04

 Cycle  11  Pass 1  IDiag  1:
 RMSU=  6.66D-07    CP:  1.00D+00  1.03D+00  5.03D-01
 E= -1991.35553468864     Delta-E=       -0.000000890210 Rises=F Damp=F
 DIIS: error= 4.29D-06 at cycle   4 NSaved=   4.
 NSaved= 4 IEnMin= 4 EnMin= -1991.35553468864     IErMin= 4 ErrMin= 4.29D-06
 ErrMax= 4.29D-06  0.00D+00 EMaxC= 1.00D-01 BMatC= 1.13D-08 BMatP= 6.61D-07
 IDIUse=1 WtCom= 1.00D+00 WtEn= 0.00D+00
 Coeff-Com: -0.808D-02 0.255D+00 0.217D+00 0.537D+00
 Coeff:     -0.808D-02 0.255D+00 0.217D+00 0.537D+00
 Gap=     0.229 Goal=   None    Shift=    0.000
 RMSDP=2.24D-07 MaxDP=1.28D-05 DE=-8.90D-07 OVMax= 4.11D-05

 Cycle  12  Pass 1  IDiag  1:
 RMSU=  1.99D-07    CP:  1.00D+00  1.03D+00  5.23D-01  8.78D-01
 E= -1991.35553469933     Delta-E=       -0.000000010692 Rises=F Damp=F
 DIIS: error= 1.55D-06 at cycle   5 NSaved=   5.
 NSaved= 5 IEnMin= 5 EnMin= -1991.35553469933     IErMin= 5 ErrMin= 1.55D-06
 ErrMax= 1.55D-06  0.00D+00 EMaxC= 1.00D-01 BMatC= 9.98D-10 BMatP= 1.13D-08
 IDIUse=1 WtCom= 1.00D+00 WtEn= 0.00D+00
 Coeff-Com: -0.757D-03 0.819D-02 0.987D-02 0.212D+00 0.770D+00
 Coeff:     -0.757D-03 0.819D-02 0.987D-02 0.212D+00 0.770D+00
 Gap=     0.229 Goal=   None    Shift=    0.000
 RMSDP=9.24D-08 MaxDP=3.89D-06 DE=-1.07D-08 OVMax= 1.20D-05

 Cycle  13  Pass 1  IDiag  1:
 RMSU=  6.89D-08    CP:  1.00D+00  1.03D+00  5.27D-01  9.61D-01  8.91D-01
 E= -1991.35553470040     Delta-E=       -0.000000001070 Rises=F Damp=F
 DIIS: error= 4.37D-07 at cycle   6 NSaved=   6.
 NSaved= 6 IEnMin= 6 EnMin= -1991.35553470040     IErMin= 6 ErrMin= 4.37D-07
 ErrMax= 4.37D-07  0.00D+00 EMaxC= 1.00D-01 BMatC= 2.41D-10 BMatP= 9.98D-10
 IDIUse=1 WtCom= 1.00D+00 WtEn= 0.00D+00
 Coeff-Com:  0.821D-03-0.341D-01-0.279D-01 0.411D-01 0.415D+00 0.605D+00
 Coeff:      0.821D-03-0.341D-01-0.279D-01 0.411D-01 0.415D+00 0.605D+00
 Gap=     0.229 Goal=   None    Shift=    0.000
 RMSDP=3.67D-08 MaxDP=1.89D-06 DE=-1.07D-09 OVMax= 6.50D-06

 Cycle  14  Pass 1  IDiag  1:
 RMSU=  2.73D-08    CP:  1.00D+00  1.03D+00  5.28D-01  9.80D-01  9.70D-01
                    CP:  8.13D-01
 E= -1991.35553470062     Delta-E=       -0.000000000217 Rises=F Damp=F
 DIIS: error= 1.59D-07 at cycle   7 NSaved=   7.
 NSaved= 7 IEnMin= 7 EnMin= -1991.35553470062     IErMin= 7 ErrMin= 1.59D-07
 ErrMax= 1.59D-07  0.00D+00 EMaxC= 1.00D-01 BMatC= 1.93D-11 BMatP= 2.41D-10
 IDIUse=1 WtCom= 1.00D+00 WtEn= 0.00D+00
 Coeff-Com:  0.430D-03-0.157D-01-0.133D-01 0.548D-03 0.104D+00 0.271D+00
 Coeff-Com:  0.652D+00
 Coeff:      0.430D-03-0.157D-01-0.133D-01 0.548D-03 0.104D+00 0.271D+00
 Coeff:      0.652D+00
 Gap=     0.229 Goal=   None    Shift=    0.000
 RMSDP=1.10D-08 MaxDP=6.23D-07 DE=-2.17D-10 OVMax= 1.63D-06

 Cycle  15  Pass 1  IDiag  1:
 RMSU=  8.17D-09    CP:  1.00D+00  1.03D+00  5.29D-01  9.85D-01  9.75D-01
                    CP:  9.04D-01  1.01D+00
 E= -1991.35553470060     Delta-E=        0.000000000013 Rises=F Damp=F
 DIIS: error= 3.94D-08 at cycle   8 NSaved=   8.
 NSaved= 8 IEnMin= 7 EnMin= -1991.35553470062     IErMin= 8 ErrMin= 3.94D-08
 ErrMax= 3.94D-08  0.00D+00 EMaxC= 1.00D-01 BMatC= 2.06D-12 BMatP= 1.93D-11
 IDIUse=1 WtCom= 1.00D+00 WtEn= 0.00D+00
 Coeff-Com:  0.587D-05 0.564D-03 0.572D-04-0.653D-02-0.442D-01-0.760D-02
 Coeff-Com:  0.229D+00 0.828D+00
 Coeff:      0.587D-05 0.564D-03 0.572D-04-0.653D-02-0.442D-01-0.760D-02
 Coeff:      0.229D+00 0.828D+00
 Gap=     0.229 Goal=   None    Shift=    0.000
 RMSDP=4.81D-09 MaxDP=2.42D-07 DE= 1.27D-11 OVMax= 8.32D-07

 SCF Done:  E(RM062X) =  -1991.35553470     A.U. after   15 cycles
            NFock= 15  Conv=0.48D-08     -V/T= 2.0076
 KE= 1.976413068215D+03 PE=-1.455589709963D+04 EE= 5.636262901782D+03
 Leave Link  502 at Thu Feb  7 09:26:44 2019, MaxMem=   104857600 cpu:            3887.5 elap:             162.3
 (Enter /home/xinyan/g16/l601.exe)
 Copying SCF densities to generalized density rwf, IOpCl= 0 IROHF=0.

 **********************************************************************

            Population analysis using the SCF density.

 **********************************************************************

 Orbital symmetries:
       Occupied  (A) (A) (A) (A) (A) (A) (A) (A) (A) (A) (A) (A)
                 (A) (A) (A) (A) (A) (A) (A) (A) (A) (A) (A) (A)
                 (A) (A) (A) (A) (A) (A) (A) (A) (A) (A) (A) (A)
                 (A) (A) (A) (A) (A) (A) (A) (A) (A) (A) (A) (A)
                 (A) (A) (A) (A) (A) (A) (A) (A) (A) (A) (A) (A)
                 (A) (A) (A) (A) (A) (A) (A) (A) (A) (A) (A) (A)
                 (A) (A) (A) (A) (A) (A) (A) (A) (A) (A) (A) (A)
                 (A) (A) (A) (A) (A) (A) (A) (A) (A) (A) (A) (A)
                 (A) (A) (A) (A) (A) (A) (A) (A) (A) (A) (A) (A)
                 (A) (A) (A) (A) (A) (A) (A) (A) (A) (A) (A) (A)
                 (A) (A) (A) (A) (A) (A) (A) (A) (A) (A) (A) (A)
                 (A) (A) (A) (A) (A) (A) (A) (A)
       Virtual   (A) (A) (A) (A) (A) (A) (A) (A) (A) (A) (A) (A)
                 (A) (A) (A) (A) (A) (A) (A) (A) (A) (A) (A) (A)
                 (A) (A) (A) (A) (A) (A) (A) (A) (A) (A) (A) (A)
                 (A) (A) (A) (A) (A) (A) (A) (A) (A) (A) (A) (A)
                 (A) (A) (A) (A) (A) (A) (A) (A) (A) (A) (A) (A)
                 (A) (A) (A) (A) (A) (A) (A) (A) (A) (A) (A) (A)
                 (A) (A) (A) (A) (A) (A) (A) (A) (A) (A) (A) (A)
                 (A) (A) (A) (A) (A) (A) (A) (A) (A) (A) (A) (A)
                 (A) (A) (A) (A) (A) (A) (A) (A) (A) (A) (A) (A)
                 (A) (A) (A) (A) (A) (A) (A) (A) (A) (A) (A) (A)
                 (A) (A) (A) (A) (A) (A) (A) (A) (A) (A) (A) (A)
                 (A) (A) (A) (A) (A) (A) (A) (A) (A) (A) (A) (A)
                 (A) (A) (A) (A) (A) (A) (A) (A) (A) (A) (A) (A)
                 (A) (A) (A) (A) (A) (A) (A) (A) (A) (A) (A) (A)
                 (A) (A) (A) (A) (A) (A) (A) (A) (A) (A) (A) (A)
                 (A) (A) (A) (A) (A) (A) (A) (A) (A) (A) (A) (A)
                 (A) (A) (A) (A) (A) (A) (A) (A) (A) (A) (A) (A)
                 (A) (A) (A) (A) (A) (A) (A) (A) (A) (A) (A) (A)
                 (A) (A) (A) (A) (A) (A) (A) (A) (A) (A) (A) (A)
                 (A) (A) (A) (A) (A) (A) (A) (A) (A) (A) (A) (A)
                 (A) (A) (A) (A) (A) (A) (A) (A) (A) (A) (A) (A)
                 (A) (A) (A) (A) (A) (A) (A) (A) (A) (A) (A) (A)
                 (A) (A) (A) (A) (A) (A) (A) (A) (A) (A) (A) (A)
                 (A) (A) (A) (A) (A) (A) (A) (A) (A) (A) (A) (A)
                 (A) (A) (A) (A) (A) (A) (A) (A) (A) (A) (A) (A)
                 (A) (A) (A) (A) (A) (A) (A) (A) (A) (A) (A) (A)
                 (A) (A) (A) (A) (A) (A) (A) (A) (A) (A) (A) (A)
                 (A) (A) (A) (A) (A) (A) (A) (A) (A) (A) (A) (A)
                 (A) (A) (A) (A) (A) (A) (A) (A) (A) (A) (A) (A)
                 (A) (A) (A) (A) (A) (A) (A) (A) (A) (A) (A) (A)
                 (A) (A) (A) (A) (A) (A) (A) (A) (A) (A) (A) (A)
                 (A) (A) (A) (A) (A) (A) (A) (A) (A) (A) (A) (A)
                 (A) (A) (A) (A) (A) (A) (A) (A) (A) (A) (A) (A)
                 (A) (A) (A) (A) (A) (A) (A) (A) (A) (A) (A) (A)
                 (A) (A) (A) (A) (A) (A) (A) (A) (A) (A) (A) (A)
                 (A) (A) (A) (A) (A) (A) (A) (A) (A) (A) (A) (A)
                 (A) (A) (A) (A) (A) (A) (A) (A) (A) (A) (A) (A)
                 (A) (A) (A) (A) (A) (A) (A) (A) (A) (A) (A) (A)
                 (A) (A) (A) (A) (A) (A) (A) (A) (A) (A) (A) (A)
                 (A) (A) (A) (A) (A) (A) (A) (A) (A) (A) (A) (A)
                 (A) (A) (A) (A) (A) (A)
 The electronic state is 1-A.
 Alpha  occ. eigenvalues --  -90.14695 -19.62351 -19.62037 -19.58513 -19.57171
 Alpha  occ. eigenvalues --  -19.50826 -14.85172 -14.80049 -14.76377 -10.63158
 Alpha  occ. eigenvalues --  -10.62605 -10.62327 -10.62120 -10.61069 -10.59841
 Alpha  occ. eigenvalues --  -10.57780 -10.57756 -10.57662 -10.57018 -10.56969
 Alpha  occ. eigenvalues --  -10.56871 -10.56375 -10.55861 -10.55121 -10.55072
 Alpha  occ. eigenvalues --  -10.55042 -10.54888 -10.54686 -10.54680 -10.54675
 Alpha  occ. eigenvalues --  -10.54444 -10.54058 -10.53122 -10.51111 -10.51006
 Alpha  occ. eigenvalues --  -10.49626  -8.45669  -6.37896  -6.37845  -6.37720
 Alpha  occ. eigenvalues --   -1.22491  -1.13443  -1.12812  -1.10692  -1.08882
 Alpha  occ. eigenvalues --   -1.06002  -1.02367  -1.00261  -0.95816  -0.95213
 Alpha  occ. eigenvalues --   -0.93468  -0.90111  -0.88568  -0.86512  -0.85397
 Alpha  occ. eigenvalues --   -0.84899  -0.84847  -0.83725  -0.83315  -0.83038
 Alpha  occ. eigenvalues --   -0.76562  -0.76029  -0.75552  -0.74180  -0.73235
 Alpha  occ. eigenvalues --   -0.71745  -0.68230  -0.68129  -0.67748  -0.67481
 Alpha  occ. eigenvalues --   -0.66415  -0.65481  -0.64882  -0.63328  -0.60522
 Alpha  occ. eigenvalues --   -0.60375  -0.59947  -0.59397  -0.57950  -0.57684
 Alpha  occ. eigenvalues --   -0.57151  -0.56375  -0.55640  -0.55062  -0.54381
 Alpha  occ. eigenvalues --   -0.53550  -0.53052  -0.52654  -0.52442  -0.52162
 Alpha  occ. eigenvalues --   -0.51670  -0.50823  -0.50127  -0.49928  -0.49372
 Alpha  occ. eigenvalues --   -0.49241  -0.48915  -0.48508  -0.48198  -0.48029
 Alpha  occ. eigenvalues --   -0.47703  -0.47645  -0.47156  -0.46213  -0.45835
 Alpha  occ. eigenvalues --   -0.45347  -0.45177  -0.44391  -0.44074  -0.43186
 Alpha  occ. eigenvalues --   -0.42465  -0.42336  -0.41204  -0.40878  -0.40752
 Alpha  occ. eigenvalues --   -0.40657  -0.40399  -0.40150  -0.39844  -0.39428
 Alpha  occ. eigenvalues --   -0.39107  -0.38923  -0.38717  -0.38296  -0.37751
 Alpha  occ. eigenvalues --   -0.37451  -0.36524  -0.36441  -0.36032  -0.35033
 Alpha  occ. eigenvalues --   -0.34569  -0.34300  -0.31869  -0.31281  -0.30014
 Alpha  occ. eigenvalues --   -0.29275  -0.28807  -0.27782  -0.24439  -0.24086
 Alpha virt. eigenvalues --   -0.01235   0.00582   0.03207   0.03588   0.10168
 Alpha virt. eigenvalues --    0.10594   0.11357   0.12562   0.13165   0.13329
 Alpha virt. eigenvalues --    0.14155   0.14414   0.15070   0.15534   0.15536
 Alpha virt. eigenvalues --    0.16154   0.16448   0.16920   0.17338   0.17687
 Alpha virt. eigenvalues --    0.17973   0.18003   0.18204   0.18701   0.19074
 Alpha virt. eigenvalues --    0.19247   0.19388   0.19841   0.19991   0.20218
 Alpha virt. eigenvalues --    0.20446   0.20908   0.21130   0.21206   0.21397
 Alpha virt. eigenvalues --    0.21954   0.22035   0.22419   0.22802   0.23237
 Alpha virt. eigenvalues --    0.23532   0.23896   0.24503   0.24616   0.24814
 Alpha virt. eigenvalues --    0.25125   0.25367   0.25698   0.26096   0.26637
 Alpha virt. eigenvalues --    0.26853   0.27262   0.27951   0.28441   0.28588
 Alpha virt. eigenvalues --    0.28786   0.29374   0.29659   0.30228   0.30810
 Alpha virt. eigenvalues --    0.30920   0.31600   0.31902   0.32063   0.32275
 Alpha virt. eigenvalues --    0.33228   0.33811   0.34703   0.35260   0.35496
 Alpha virt. eigenvalues --    0.36071   0.37237   0.37732   0.37995   0.39040
 Alpha virt. eigenvalues --    0.39507   0.40084   0.40341   0.42188   0.42684
 Alpha virt. eigenvalues --    0.44154   0.44845   0.46334   0.47925   0.49023
 Alpha virt. eigenvalues --    0.49227   0.51016   0.52372   0.53348   0.54417
 Alpha virt. eigenvalues --    0.54905   0.55533   0.55894   0.56876   0.57334
 Alpha virt. eigenvalues --    0.57686   0.57941   0.58675   0.59263   0.59574
 Alpha virt. eigenvalues --    0.59928   0.60251   0.60558   0.60711   0.61056
 Alpha virt. eigenvalues --    0.61485   0.61798   0.62491   0.62499   0.62959
 Alpha virt. eigenvalues --    0.63571   0.63949   0.64484   0.64766   0.65564
 Alpha virt. eigenvalues --    0.66013   0.66094   0.66467   0.67454   0.67863
 Alpha virt. eigenvalues --    0.68128   0.68675   0.69475   0.69782   0.70352
 Alpha virt. eigenvalues --    0.70837   0.71539   0.71836   0.72819   0.73058
 Alpha virt. eigenvalues --    0.73430   0.74434   0.74664   0.75168   0.75668
 Alpha virt. eigenvalues --    0.76637   0.76977   0.77451   0.77757   0.78729
 Alpha virt. eigenvalues --    0.78959   0.79291   0.79606   0.80106   0.80860
 Alpha virt. eigenvalues --    0.81031   0.81591   0.82852   0.83626   0.84370
 Alpha virt. eigenvalues --    0.84510   0.85046   0.85173   0.85520   0.86315
 Alpha virt. eigenvalues --    0.87522   0.88221   0.88817   0.89244   0.89650
 Alpha virt. eigenvalues --    0.89772   0.90043   0.90380   0.90871   0.91297
 Alpha virt. eigenvalues --    0.91782   0.92170   0.92418   0.92826   0.93416
 Alpha virt. eigenvalues --    0.93510   0.93947   0.94270   0.94751   0.95089
 Alpha virt. eigenvalues --    0.95355   0.95570   0.96334   0.96615   0.96728
 Alpha virt. eigenvalues --    0.96768   0.97476   0.97736   0.97989   0.98701
 Alpha virt. eigenvalues --    0.98956   0.99353   0.99619   0.99799   1.00644
 Alpha virt. eigenvalues --    1.01019   1.01203   1.01912   1.02420   1.02549
 Alpha virt. eigenvalues --    1.02871   1.03550   1.04173   1.04539   1.05171
 Alpha virt. eigenvalues --    1.06149   1.06410   1.07475   1.07999   1.08551
 Alpha virt. eigenvalues --    1.09510   1.09916   1.10672   1.11340   1.11765
 Alpha virt. eigenvalues --    1.12607   1.13035   1.13474   1.14443   1.15349
 Alpha virt. eigenvalues --    1.16035   1.17230   1.17964   1.18828   1.18895
 Alpha virt. eigenvalues --    1.19583   1.19763   1.20060   1.20880   1.21225
 Alpha virt. eigenvalues --    1.23225   1.23652   1.24248   1.24638   1.25371
 Alpha virt. eigenvalues --    1.25855   1.26703   1.27384   1.28670   1.30158
 Alpha virt. eigenvalues --    1.31007   1.31124   1.32199   1.32306   1.32639
 Alpha virt. eigenvalues --    1.33138   1.34253   1.35331   1.35677   1.36275
 Alpha virt. eigenvalues --    1.37284   1.38018   1.38541   1.40663   1.41202
 Alpha virt. eigenvalues --    1.42018   1.42195   1.44382   1.45682   1.46490
 Alpha virt. eigenvalues --    1.47377   1.47673   1.48892   1.49637   1.50834
 Alpha virt. eigenvalues --    1.51022   1.52071   1.52169   1.52852   1.54042
 Alpha virt. eigenvalues --    1.54335   1.54754   1.55067   1.55627   1.57139
 Alpha virt. eigenvalues --    1.57366   1.57902   1.58997   1.59424   1.60842
 Alpha virt. eigenvalues --    1.61759   1.62841   1.64238   1.64394   1.66852
 Alpha virt. eigenvalues --    1.68529   1.69569   1.69952   1.71497   1.73765
 Alpha virt. eigenvalues --    1.74146   1.74644   1.75571   1.76806   1.77133
 Alpha virt. eigenvalues --    1.78117   1.78928   1.80278   1.81115   1.81509
 Alpha virt. eigenvalues --    1.83123   1.83888   1.84052   1.85290   1.85739
 Alpha virt. eigenvalues --    1.86384   1.86742   1.87262   1.87922   1.88696
 Alpha virt. eigenvalues --    1.89219   1.89730   1.90210   1.90934   1.91251
 Alpha virt. eigenvalues --    1.92225   1.93086   1.93474   1.93866   1.94269
 Alpha virt. eigenvalues --    1.94713   1.95349   1.95591   1.96769   1.97148
 Alpha virt. eigenvalues --    1.97312   1.99066   1.99197   2.00405   2.00600
 Alpha virt. eigenvalues --    2.00919   2.01702   2.02146   2.03076   2.04068
 Alpha virt. eigenvalues --    2.04696   2.05630   2.06011   2.06273   2.06589
 Alpha virt. eigenvalues --    2.07052   2.07382   2.08134   2.08907   2.09411
 Alpha virt. eigenvalues --    2.10152   2.10403   2.10564   2.11450   2.11925
 Alpha virt. eigenvalues --    2.12375   2.13308   2.14331   2.14725   2.15165
 Alpha virt. eigenvalues --    2.15929   2.16539   2.17183   2.17895   2.18194
 Alpha virt. eigenvalues --    2.19252   2.19792   2.20430   2.20882   2.20950
 Alpha virt. eigenvalues --    2.22005   2.23027   2.23243   2.23597   2.23739
 Alpha virt. eigenvalues --    2.24770   2.24898   2.25480   2.26792   2.27533
 Alpha virt. eigenvalues --    2.28051   2.28913   2.29827   2.30763   2.31156
 Alpha virt. eigenvalues --    2.32090   2.33359   2.34521   2.34854   2.35141
 Alpha virt. eigenvalues --    2.36101   2.36917   2.37424   2.38002   2.38240
 Alpha virt. eigenvalues --    2.39767   2.40701   2.40854   2.41409   2.41668
 Alpha virt. eigenvalues --    2.42763   2.44496   2.45910   2.46471   2.47858
 Alpha virt. eigenvalues --    2.49427   2.49949   2.50653   2.50990   2.52543
 Alpha virt. eigenvalues --    2.53269   2.54215   2.56305   2.56916   2.58408
 Alpha virt. eigenvalues --    2.60815   2.61321   2.61549   2.62331   2.63281
 Alpha virt. eigenvalues --    2.63810   2.64778   2.65224   2.67443   2.68339
 Alpha virt. eigenvalues --    2.69001   2.69458   2.69973   2.71222   2.71640
 Alpha virt. eigenvalues --    2.72741   2.74364   2.75591   2.76012   2.77728
 Alpha virt. eigenvalues --    2.78409   2.78950   2.80203   2.81043   2.81243
 Alpha virt. eigenvalues --    2.83346   2.86148   2.86367   2.86599   2.88502
 Alpha virt. eigenvalues --    2.90151   2.91508   2.93053   2.93284   2.95710
 Alpha virt. eigenvalues --    2.99929   3.00072   3.00759   3.04374   3.10235
 Alpha virt. eigenvalues --    3.14080   3.18089   3.24177   3.41619   3.42588
 Alpha virt. eigenvalues --    3.93500   4.00187   4.03967   4.08797   4.12984
 Alpha virt. eigenvalues --    4.13375   4.15135   4.15935   4.17901   4.18718
 Alpha virt. eigenvalues --    4.20268   4.22013   4.23989   4.26192   4.26885
 Alpha virt. eigenvalues --    4.28235   4.31001   4.32642   4.34949   4.35876
 Alpha virt. eigenvalues --    4.37388   4.39593   4.40833   4.43077   4.45070
 Alpha virt. eigenvalues --    4.46311   4.55612   4.58175   4.59178   4.60859
 Alpha virt. eigenvalues --    4.62357   4.65706   4.72957   4.74890   4.76653
 Alpha virt. eigenvalues --    4.77952
          Condensed to atoms (all electrons):
 Mulliken charges:
               1
     1  C   -0.306559
     2  C   -0.307791
     3  C   -0.311425
     4  C   -0.060633
     5  C    0.065592
     6  C   -0.306837
     7  H    0.175408
     8  H    0.163246
     9  H    0.166741
    10  H    0.151623
    11  H    0.164856
    12  H    0.207603
    13  H    0.174300
    14  H    0.192176
    15  H    0.160376
    16  H    0.156577
    17  N   -0.437285
    18  C    0.080453
    19  C    0.081096
    20  C   -0.210945
    21  H    0.202813
    22  C   -0.221361
    23  H    0.243917
    24  C    0.448823
    25  H    0.192063
    26  H    0.209714
    27  N   -0.518302
    28  C   -0.164381
    29  H    0.167213
    30  H    0.220200
    31  C   -0.145153
    32  H    0.160432
    33  H    0.205402
    34  N   -0.812663
    35  S    1.237477
    36  O   -0.603996
    37  O   -0.591775
    38  C    0.049266
    39  C   -0.197386
    40  C   -0.192703
    41  C   -0.172549
    42  C   -0.165189
    43  C   -0.205341
    44  H    0.235399
    45  H    0.141236
    46  H    0.156262
    47  H    0.159874
    48  H    0.154395
    49  O   -0.603677
    50  H    0.451416
    51  C    0.714511
    52  O   -0.684498
    53  O   -0.700820
    54  H    0.432743
    55  C   -0.339809
    56  H    0.144265
    57  H    0.151012
    58  C   -0.078968
    59  H    0.129983
    60  H    0.156152
    61  C   -0.666385
    62  H    0.266564
    63  H    0.200345
    64  H    0.223138
    65  C   -0.285105
    66  H    0.142969
    67  H    0.140713
    68  C   -0.475184
    69  H    0.148437
    70  H    0.149067
    71  H    0.148795
    72  C   -0.334181
    73  H    0.184232
    74  H    0.160113
    75  C   -0.338536
    76  H    0.205719
    77  H    0.164735
 Sum of Mulliken charges =  -0.00000
 Mulliken charges with hydrogens summed into heavy atoms:
               1
     1  C    0.009919
     2  C    0.022196
     3  C    0.020560
     4  C    0.146970
     5  C    0.239893
     6  C    0.045714
    17  N   -0.437285
    18  C    0.283266
    19  C    0.325012
    20  C   -0.018882
    22  C   -0.011646
    24  C    0.448823
    27  N   -0.518302
    28  C    0.223032
    31  C    0.220680
    34  N   -0.361247
    35  S    1.237477
    36  O   -0.603996
    37  O   -0.591775
    38  C    0.049266
    39  C    0.038013
    40  C   -0.051467
    41  C   -0.016287
    42  C   -0.005314
    43  C   -0.050947
    49  O   -0.603677
    51  C    0.714511
    52  O   -0.684498
    53  O   -0.268077
    55  C   -0.044532
    58  C    0.207168
    61  C    0.023662
    65  C   -0.001423
    68  C   -0.028885
    72  C    0.010164
    75  C    0.031917
 Electronic spatial extent (au):  <R**2>=          14648.4804
 Charge=             -0.0000 electrons
 Dipole moment (field-independent basis, Debye):
    X=             -3.5243    Y=             -1.4757    Z=             -5.7206  Tot=              6.8792
 Quadrupole moment (field-independent basis, Debye-Ang):
   XX=           -208.4233   YY=           -222.7276   ZZ=           -218.1213
   XY=            -13.5283   XZ=             -4.2432   YZ=             10.7891
 Traceless Quadrupole moment (field-independent basis, Debye-Ang):
   XX=              8.0008   YY=             -6.3035   ZZ=             -1.6972
   XY=            -13.5283   XZ=             -4.2432   YZ=             10.7891
 Octapole moment (field-independent basis, Debye-Ang**2):
  XXX=              5.6562  YYY=            -52.0570  ZZZ=             18.5832  XYY=              5.6907
  XXY=            -23.7805  XXZ=            -41.1037  XZZ=            -24.6033  YZZ=             15.8917
  YYZ=             15.8102  XYZ=            -17.0622
 Hexadecapole moment (field-independent basis, Debye-Ang**3):
 XXXX=          -9993.2044 YYYY=          -5551.6592 ZZZZ=          -3673.0092 XXXY=           -205.1045
 XXXZ=             -5.2655 YYYX=           -117.1890 YYYZ=             44.5805 ZZZX=           -113.5616
 ZZZY=             -7.7432 XXYY=          -2608.4167 XXZZ=          -2367.5626 YYZZ=          -1646.0557
 XXYZ=             45.4452 YYXZ=             49.9469 ZZXY=            -52.4065
 N-N= 4.951865594928D+03 E-N=-1.455589707458D+04  KE= 1.976413068215D+03
 No NMR shielding tensors so no spin-rotation constants.
 Leave Link  601 at Thu Feb  7 09:26:45 2019, MaxMem=   104857600 cpu:              29.3 elap:               1.4
 (Enter /home/xinyan/g16/l701.exe)
 ... and contract with generalized density number  0.
 Compute integral first derivatives.
 R6Disp: Adding Grimme-D3 dispersion energy 1st derivatives to the gradient.
 Leave Link  701 at Thu Feb  7 09:26:47 2019, MaxMem=   104857600 cpu:              25.8 elap:               1.1
 (Enter /home/xinyan/g16/l702.exe)
 L702 exits ... SP integral derivatives will be done elsewhere.
 Leave Link  702 at Thu Feb  7 09:26:47 2019, MaxMem=   104857600 cpu:               1.4 elap:               0.1
 (Enter /home/xinyan/g16/l703.exe)
 Integral derivatives from FoFJK, PRISM(SPDF).
 Compute integral first derivatives, UseDBF=F ICtDFT=           0.
 Calling FoFJK, ICntrl=      2127 FMM=T ISym2X=0 I1Cent= 0 IOpClX= 0 NMat=1 NMatS=1 NMatT=0.
 FoFJK:  IHMeth= 1 ICntrl=    2127 DoSepK=F KAlg= 0 I1Cent=           0 FoldK=F
 IRaf=         0 NMat=       1 IRICut=       1 DoRegI=T DoRafI=F ISym2E= 0 IDoP0=0 IntGTp=1.
 FoFCou: FMM=T IPFlag=           0 FMFlag=      100000 FMFlg1=        2001
         NFxFlg=           0 DoJE=F BraDBF=F KetDBF=F FulRan=T
         wScrn=  0.000000 ICntrl=      2127 IOpCl=  0 I1Cent=           0 NGrid=           0
         NMat0=    1 NMatS0=      1 NMatT0=    0 NMatD0=    1 NMtDS0=    0 NMtDT0=    0
 Symmetry not used in FoFCou.
 FMM levels:  10  Number of levels for PrismC:   9
 Leave Link  703 at Thu Feb  7 09:27:22 2019, MaxMem=   104857600 cpu:             816.1 elap:              35.0
 (Enter /home/xinyan/g16/l716.exe)
 Dipole        =-1.38657733D+00-5.80575664D-01-2.25064143D+00
 ***** Axes restored to original set *****
 -------------------------------------------------------------------
 Center     Atomic                   Forces (Hartrees/Bohr)
 Number     Number              X              Y              Z
 -------------------------------------------------------------------
      1        6          -0.000019804   -0.000006072   -0.000021329
      2        6          -0.000019035   -0.000011787   -0.000017460
      3        6           0.000000287   -0.000004606   -0.000016107
      4        6           0.000028097    0.000005293    0.000006216
      5        6           0.000000143   -0.000006540   -0.000018219
      6        6          -0.000004276   -0.000012213   -0.000023178
      7        1           0.000006442   -0.000013681   -0.000007069
      8        1           0.000003526   -0.000011622   -0.000016504
      9        1          -0.000001655   -0.000016522   -0.000016719
     10        1          -0.000008971   -0.000007039   -0.000021521
     11        1          -0.000009844   -0.000010630   -0.000020334
     12        1           0.000001400    0.000006850   -0.000000605
     13        1          -0.000030380   -0.000023437   -0.000020180
     14        1          -0.000001362    0.000001628   -0.000020814
     15        1          -0.000002920   -0.000000958   -0.000025583
     16        1          -0.000009368   -0.000014449   -0.000009881
     17        7          -0.000011187   -0.000004216    0.000017309
     18        6          -0.000004197    0.000006333   -0.000008669
     19        6           0.000014981    0.000008000   -0.000009988
     20        6           0.000003508    0.000001564   -0.000006581
     21        1           0.000013429    0.000010029   -0.000000748
     22        6          -0.000009284    0.000008223    0.000004179
     23        1          -0.000004270   -0.000002833   -0.000007172
     24        6           0.000000681   -0.000005777   -0.000001566
     25        1           0.000007091    0.000003638    0.000002662
     26        1          -0.000000577    0.000001865    0.000001437
     27        7           0.000006487    0.000012502    0.000011021
     28        6          -0.000010466    0.000019429    0.000009847
     29        1           0.000005892    0.000008423    0.000011233
     30        1          -0.000010498    0.000010100    0.000008164
     31        6          -0.000005039    0.000001373    0.000012213
     32        1           0.000007352    0.000010696    0.000019313
     33        1          -0.000002104    0.000011511    0.000010297
     34        7          -0.000249545   -0.000117254    0.000058443
     35       16           0.000029438    0.000036148   -0.000025036
     36        8          -0.000041110    0.000001459   -0.000008444
     37        8           0.000001664    0.000005109   -0.000017601
     38        6           0.000019391   -0.000006353    0.000014812
     39        6           0.000005079    0.000009206    0.000007493
     40        6          -0.000016040    0.000011339    0.000009312
     41        6          -0.000030810    0.000015369    0.000044560
     42        6          -0.000014008   -0.000013939    0.000034854
     43        6           0.000013222   -0.000025938    0.000038908
     44        1           0.000003693    0.000029858   -0.000007593
     45        1          -0.000020833    0.000030735    0.000008868
     46        1          -0.000031857    0.000010669    0.000038168
     47        1          -0.000013956   -0.000021245    0.000057831
     48        1           0.000004717   -0.000029120    0.000045838
     49        8          -0.000082748    0.000033056    0.000030774
     50        1           0.000236415    0.000083582   -0.000102756
     51        6           0.000116163    0.000001093    0.000006072
     52        8          -0.000092137    0.000054962    0.000020770
     53        8          -0.000005795    0.000015136   -0.000006529
     54        1           0.000000768   -0.000011143    0.000001558
     55        6          -0.000023915   -0.000020939   -0.000031424
     56        1           0.000039627    0.000011785    0.000007524
     57        1           0.000007699   -0.000041134   -0.000020056
     58        6           0.000013489   -0.000022659   -0.000009253
     59        1           0.000041651   -0.000030719    0.000017907
     60        1           0.000023811    0.000002285   -0.000002300
     61        6           0.000007033    0.000005918   -0.000000751
     62        1           0.000013219    0.000019421   -0.000003690
     63        1           0.000013875    0.000020708   -0.000015150
     64        1           0.000002732    0.000024313   -0.000015377
     65        6           0.000011363   -0.000000735   -0.000014481
     66        1          -0.000023099   -0.000011976   -0.000007571
     67        1           0.000011884    0.000006954   -0.000002972
     68        6           0.000014269   -0.000037207   -0.000016119
     69        1           0.000027117   -0.000027037   -0.000026981
     70        1           0.000051519   -0.000023724   -0.000021637
     71        1           0.000023519   -0.000043561   -0.000030817
     72        6           0.000000163    0.000008637    0.000025526
     73        1          -0.000012449    0.000016348    0.000019652
     74        1           0.000002333    0.000021348    0.000025963
     75        6          -0.000010253    0.000015179    0.000014646
     76        1           0.000000024    0.000002004    0.000007557
     77        1          -0.000001396    0.000016989    0.000025837
 -------------------------------------------------------------------
 Cartesian Forces:  Max     0.000249545 RMS     0.000033293
 Z-matrix is all fixed cartesians, so copy forces.
 Leave Link  716 at Thu Feb  7 09:27:22 2019, MaxMem=   104857600 cpu:               1.6 elap:               0.1
 (Enter /home/xinyan/g16/l103.exe)

 GradGradGradGradGradGradGradGradGradGradGradGradGradGradGradGradGradGrad
 Berny optimization.
 Search for a local minimum.
 Step number   1 out of a maximum of    2
 All quantities printed in internal units (Hartrees-Bohrs-Radians)
 Second derivative matrix not updated -- first step.
 ITU=  0
     Eigenvalues ---    0.00000   0.00000   0.00000   0.00000   0.00000
     Eigenvalues ---    0.00000   0.00004   0.00013   0.00018   0.00024
     Eigenvalues ---    0.00038   0.00039   0.00088   0.00095   0.00115
     Eigenvalues ---    0.00137   0.00138   0.00207   0.00234   0.00288
     Eigenvalues ---    0.00406   0.00412   0.00461   0.00500   0.00587
     Eigenvalues ---    0.00603   0.00627   0.00692   0.00713   0.00837
     Eigenvalues ---    0.00967   0.01087   0.01150   0.01576   0.01635
     Eigenvalues ---    0.01668   0.01816   0.01905   0.02040   0.02126
     Eigenvalues ---    0.02309   0.02322   0.02474   0.02517   0.02857
     Eigenvalues ---    0.02971   0.03072   0.03089   0.03294   0.03530
     Eigenvalues ---    0.03545   0.03827   0.03881   0.04184   0.04290
     Eigenvalues ---    0.04405   0.04789   0.04818   0.04846   0.04933
     Eigenvalues ---    0.05025   0.05061   0.05112   0.05140   0.05165
     Eigenvalues ---    0.05170   0.05260   0.05336   0.05477   0.05590
     Eigenvalues ---    0.05655   0.05674   0.05733   0.05744   0.05813
     Eigenvalues ---    0.05819   0.06169   0.06258   0.06549   0.06696
     Eigenvalues ---    0.06829   0.06840   0.06914   0.06975   0.07100
     Eigenvalues ---    0.07140   0.07236   0.07271   0.07333   0.07375
     Eigenvalues ---    0.07612   0.07870   0.07906   0.07970   0.08133
     Eigenvalues ---    0.08533   0.08598   0.09037   0.09130   0.09677
     Eigenvalues ---    0.09739   0.10185   0.10555   0.11278   0.11563
     Eigenvalues ---    0.11751   0.12225   0.12709   0.12736   0.12859
     Eigenvalues ---    0.12939   0.12962   0.13336   0.13716   0.13838
     Eigenvalues ---    0.14007   0.14524   0.14625   0.15255   0.16054
     Eigenvalues ---    0.16063   0.16598   0.16644   0.16968   0.17075
     Eigenvalues ---    0.17307   0.17621   0.17850   0.18078   0.19566
     Eigenvalues ---    0.19683   0.20308   0.20681   0.21533   0.21627
     Eigenvalues ---    0.23154   0.23578   0.24188   0.24794   0.26367
     Eigenvalues ---    0.27471   0.28380   0.29547   0.30076   0.31293
     Eigenvalues ---    0.31498   0.32380   0.33504   0.34685   0.35721
     Eigenvalues ---    0.36207   0.39364   0.40181   0.40715   0.43361
     Eigenvalues ---    0.43728   0.44496   0.47982   0.49351   0.50243
     Eigenvalues ---    0.52999   0.56340   0.56918   0.58653   0.64039
     Eigenvalues ---    0.64997   0.65499   0.66989   0.68149   0.68849
     Eigenvalues ---    0.70455   0.77044   0.77907   0.78529   0.81768
     Eigenvalues ---    0.82375   0.83319   0.83497   0.86302   0.87508
     Eigenvalues ---    0.88573   0.88742   0.90753   0.91363   0.91983
     Eigenvalues ---    0.94364   0.94866   0.95052   0.95895   0.96558
     Eigenvalues ---    0.97977   0.98087   0.99735   1.00429   1.00498
     Eigenvalues ---    1.00970   1.04105   1.04345   1.04841   1.06188
     Eigenvalues ---    1.06464   1.06790   1.07131   1.08879   1.09315
     Eigenvalues ---    1.14157   1.15367   1.16264   1.17357   1.20107
     Eigenvalues ---    1.21421   1.23706   1.27003   1.28664   1.36999
     Eigenvalues ---    1.47490   1.53334   1.58436   1.58963   1.59636
     Eigenvalues ---    1.67525   1.73178   1.73272   1.84215   2.36516
 Eigenvalue     1 is   6.66D-16 Eigenvector:
                          Y46       Y41       Y45       Y47       Y40
   1                    0.13448   0.13448   0.13448   0.13448   0.13448
                          Y42       Y39       Y43       Y44       Y48
   1                    0.13448   0.13448   0.13448   0.13448   0.13448
 Eigenvalue     2 is   2.26D-08 Eigenvector:
                          Y46       Y47       X54       Y41       Y42
   1                    0.26344   0.25207  -0.23100   0.21858   0.21216
                          X53       Y45       Y40       X52       Y71
   1                   -0.20407   0.17146   0.16689  -0.15988  -0.15557
 Eigenvalue     3 is   6.12D-08 Eigenvector:
                          X46       X45       Z47       X41       X40
   1                    0.20757   0.19738  -0.18646   0.17130   0.16539
                          Z46       Z42       Z71       Z48       Y77
   1                   -0.15518  -0.15215   0.14696  -0.13916   0.13871
 Eigenvalue     4 is   1.56D-07 Eigenvector:
                          Z54       Z53       Z77       Z52       Z76
   1                    0.20816   0.19382  -0.18102   0.17704  -0.17412
                          Z57       Z51       Z75       Z33       Y64
   1                    0.16791   0.15938  -0.15567  -0.14731   0.14686
 Eigenvalue     5 is   2.42D-07 Eigenvector:
                          Y69       Y71       Z69       Z71       X70
   1                    0.19705   0.18859   0.17615   0.17037  -0.16443
                          Z70       Y66       Y68       Y48       Z68
   1                    0.16119   0.16081   0.15743  -0.15577   0.15046
 Eigenvalue     6 is   3.04D-07 Eigenvector:
                          Z54       Y64       Y45       Y59       Y46
   1                    0.20507  -0.19994  -0.19779   0.17716  -0.16429
                          Y62       Z53       Y61       Z47       Z70
   1                   -0.16201   0.16075  -0.16061  -0.15301  -0.15091
 Eigenvalue     7 is   4.14D-05 Eigenvector:
                          Z70       Z69       X69       X45       X46
   1                    0.23501   0.23438   0.23130  -0.22874  -0.21719
                          X70       Y45       Z68       X68       Z71
   1                    0.21011  -0.19594   0.19109   0.18511   0.17906
 Quadratic step=1.932D+00 exceeds max=3.000D-01 adjusted using Lamda=-5.983D-04.
 Angle between NR and scaled steps=  12.89 degrees.
 Angle between quadratic step and forces=  63.68 degrees.
 Linear search not attempted -- first point.
 B after Tr=    -0.000575    0.000859    0.000627
         Rot=    1.000000   -0.000115    0.000020   -0.000022 Ang=  -0.01 deg.
 Variable       Old X    -DE/DX   Delta X   Delta X   Delta X     New X
                                 (Linear)    (Quad)   (Total)
    X1       -9.39921  -0.00002   0.00000  -0.00772  -0.00828  -9.40750
    Y1        0.47563  -0.00001   0.00000  -0.01358  -0.01296   0.46267
    Z1       -0.73159  -0.00002   0.00000  -0.02455  -0.02420  -0.75579
    X2       -9.69713  -0.00002   0.00000  -0.00318  -0.00357  -9.70070
    Y2       -1.92924  -0.00001   0.00000  -0.01848  -0.01750  -1.94674
    Z2       -2.31371  -0.00002   0.00000  -0.01816  -0.01838  -2.33209
    X3       -7.14993   0.00000   0.00000  -0.00141  -0.00172  -7.15165
    Y3       -2.75749  -0.00000   0.00000  -0.01750  -0.01616  -2.77365
    Z3       -3.41989  -0.00002   0.00000  -0.01498  -0.01528  -3.43518
    X4       -5.28734   0.00003   0.00000  -0.00192  -0.00230  -5.28964
    Y4       -3.20796   0.00001   0.00000  -0.00860  -0.00768  -3.21564
    Z4       -1.26629   0.00001   0.00000  -0.01272  -0.01305  -1.27933
    X5       -4.93485   0.00000   0.00000  -0.00578  -0.00634  -4.94119
    Y5       -0.77420  -0.00001   0.00000  -0.00331  -0.00274  -0.77694
    Z5        0.31798  -0.00002   0.00000  -0.02063  -0.02038   0.29760
    X6       -7.47211  -0.00000   0.00000  -0.00703  -0.00767  -7.47978
    Y6        0.10974  -0.00001   0.00000  -0.00381  -0.00359   0.10615
    Z6        1.39494  -0.00002   0.00000  -0.02328  -0.02294   1.37200
    X7       -7.34404   0.00001   0.00000   0.00185   0.00166  -7.34238
    Y7       -4.47032  -0.00001   0.00000  -0.02101  -0.01942  -4.48973
    Z7       -4.56514  -0.00001   0.00000  -0.01028  -0.01099  -4.57613
    X8      -10.45782   0.00000   0.00000  -0.00106  -0.00144 -10.45926
    Y8       -3.45268  -0.00001   0.00000  -0.01652  -0.01585  -3.46853
    Z8       -1.12832  -0.00002   0.00000  -0.01431  -0.01491  -1.14323
    X9      -11.05034  -0.00000   0.00000  -0.00313  -0.00348 -11.05382
    Y9       -1.62384  -0.00002   0.00000  -0.02492  -0.02365  -1.64749
    Z9       -3.84763  -0.00002   0.00000  -0.01949  -0.01970  -3.86733
   X10       -8.76015  -0.00001   0.00000  -0.01058  -0.01116  -8.77130
   Y10        2.02227  -0.00001   0.00000  -0.01578  -0.01484   2.00743
   Z10       -1.96036  -0.00002   0.00000  -0.02881  -0.02808  -1.98845
   X11      -11.22573  -0.00001   0.00000  -0.00886  -0.00948 -11.23521
   Y11        1.04073  -0.00001   0.00000  -0.01480  -0.01443   1.02630
   Z11        0.05830  -0.00002   0.00000  -0.02631  -0.02590   0.03239
   X12       -6.01711   0.00000   0.00000  -0.00050  -0.00087  -6.01798
   Y12       -4.69894   0.00001   0.00000  -0.00579  -0.00518  -4.70412
   Z12       -0.03127  -0.00000   0.00000  -0.00851  -0.00921  -0.04049
   X13       -4.26791  -0.00003   0.00000  -0.00868  -0.00925  -4.27716
   Y13        0.69366  -0.00002   0.00000  -0.00691  -0.00601   0.68766
   Z13       -0.98768  -0.00002   0.00000  -0.02607  -0.02546  -1.01314
   X14       -8.16494  -0.00000   0.00000  -0.00478  -0.00542  -8.17036
   Y14       -1.28080   0.00000   0.00000  -0.00056  -0.00069  -1.28149
   Z14        2.76308  -0.00002   0.00000  -0.01887  -0.01888   2.74420
   X15       -7.15059  -0.00000   0.00000  -0.00971  -0.01047  -7.16106
   Y15        1.89324  -0.00000   0.00000  -0.00010  -0.00010   1.89314
   Z15        2.39795  -0.00003   0.00000  -0.02903  -0.02826   2.36969
   X16       -6.46050  -0.00001   0.00000  -0.00331  -0.00364  -6.46414
   Y16       -1.23968  -0.00001   0.00000  -0.01981  -0.01815  -1.25783
   Z16       -4.65629  -0.00001   0.00000  -0.01884  -0.01876  -4.67505
   X17       -2.76106  -0.00001   0.00000   0.00032   0.00001  -2.76105
   Y17       -4.06901  -0.00000   0.00000  -0.00668  -0.00545  -4.07447
   Z17       -2.09331   0.00002   0.00000  -0.00767  -0.00809  -2.10140
   X18       -1.47040  -0.00000   0.00000   0.00269   0.00240  -1.46800
   Y18       -2.78400   0.00001   0.00000  -0.00594  -0.00424  -2.78825
   Z18       -3.90548  -0.00001   0.00000  -0.00552  -0.00560  -3.91108
   X19       -1.44112   0.00001   0.00000  -0.00105  -0.00136  -1.44249
   Y19       -5.60230   0.00001   0.00000  -0.00356  -0.00264  -5.60494
   Z19       -0.51051  -0.00001   0.00000  -0.00354  -0.00426  -0.51477
   X20        1.08531   0.00000   0.00000   0.00360   0.00332   1.08863
   Y20       -2.93573   0.00000   0.00000  -0.00177   0.00009  -2.93564
   Z20       -4.14689  -0.00001   0.00000   0.00109   0.00108  -4.14581
   X21       -2.58807   0.00001   0.00000   0.00394   0.00364  -2.58443
   Y21       -1.57862   0.00001   0.00000  -0.00805  -0.00612  -1.58474
   Z21       -5.12256  -0.00000   0.00000  -0.00875  -0.00859  -5.13115
   X22        1.11791  -0.00001   0.00000  -0.00046  -0.00076   1.11715
   Y22       -5.82967   0.00001   0.00000   0.00065   0.00170  -5.82797
   Z22       -0.61567   0.00000   0.00000   0.00309   0.00242  -0.61325
   X23       -2.54548  -0.00000   0.00000  -0.00302  -0.00335  -2.54883
   Y23       -6.56370  -0.00000   0.00000  -0.00425  -0.00371  -6.56741
   Z23        0.92338  -0.00001   0.00000  -0.00552  -0.00651   0.91687
   X24        2.52781   0.00000   0.00000   0.00137   0.00107   2.52889
   Y24       -4.33195  -0.00001   0.00000   0.00227   0.00377  -4.32818
   Z24       -2.34575  -0.00000   0.00000   0.00604   0.00578  -2.33998
   X25        2.00247   0.00001   0.00000   0.00561   0.00534   2.00781
   Y25       -1.86110   0.00000   0.00000  -0.00095   0.00129  -1.85981
   Z25       -5.62475   0.00000   0.00000   0.00292   0.00320  -5.62155
   X26        2.03656  -0.00000   0.00000  -0.00204  -0.00235   2.03421
   Y26       -6.99732   0.00000   0.00000   0.00321   0.00398  -6.99334
   Z26        0.78579   0.00000   0.00000   0.00626   0.00536   0.79114
   X27        5.03578   0.00001   0.00000   0.00101   0.00072   5.03650
   Y27       -4.25810   0.00001   0.00000   0.00784   0.00944  -4.24866
   Z27       -2.28800   0.00001   0.00000   0.01389   0.01375  -2.27426
   X28        6.43161  -0.00001   0.00000  -0.00412  -0.00447   6.42714
   Y28       -5.24499   0.00002   0.00000   0.01243   0.01358  -5.23141
   Z28       -0.09481   0.00001   0.00000   0.01920   0.01889  -0.07592
   X29        6.17693   0.00001   0.00000   0.00022  -0.00004   6.17689
   Y29       -7.28920   0.00001   0.00000   0.01192   0.01302  -7.27618
   Z29        0.07398   0.00001   0.00000   0.01953   0.01873   0.09272
   X30        5.72164  -0.00001   0.00000  -0.01232  -0.01277   5.70886
   Y30       -4.27904   0.00001   0.00000   0.01174   0.01247  -4.26657
   Z30        1.60135   0.00001   0.00000   0.01617   0.01604   1.61740
   X31        6.48053  -0.00001   0.00000   0.00076   0.00043   6.48096
   Y31       -2.25922   0.00000   0.00000   0.01036   0.01232  -2.24690
   Z31       -3.57988   0.00001   0.00000   0.01755   0.01792  -3.56196
   X32        6.97725   0.00001   0.00000   0.00871   0.00848   6.98573
   Y32       -2.87648   0.00001   0.00000   0.01036   0.01278  -2.86371
   Z32       -5.49595   0.00002   0.00000   0.01963   0.01988  -5.47606
   X33        5.34847  -0.00000   0.00000  -0.00301  -0.00341   5.34506
   Y33       -0.53460   0.00001   0.00000   0.00775   0.00967  -0.52493
   Z33       -3.63623   0.00001   0.00000   0.01267   0.01340  -3.62283
   X34       -2.89413  -0.00025   0.00000  -0.00385  -0.00447  -2.89860
   Y34       -1.02703  -0.00012   0.00000   0.00506   0.00531  -1.02172
   Z34        2.13416   0.00006   0.00000  -0.02159  -0.02132   2.11284
   X35       -2.93822   0.00003   0.00000  -0.00048  -0.00113  -2.93935
   Y35       -2.73037   0.00004   0.00000   0.01683   0.01649  -2.71388
   Z35        4.70007  -0.00003   0.00000  -0.01373  -0.01385   4.68622
   X36       -5.24320  -0.00004   0.00000  -0.00258  -0.00316  -5.24635
   Y36       -4.26086   0.00000   0.00000   0.01937   0.01894  -4.24192
   Z36        4.62836  -0.00001   0.00000  -0.00216  -0.00273   4.62563
   X37       -0.51399   0.00000   0.00000  -0.00154  -0.00214  -0.51613
   Y37       -4.03498   0.00001   0.00000   0.01498   0.01467  -4.02031
   Z37        4.95906  -0.00002   0.00000  -0.01316  -0.01348   4.94558
   X38       -1.29325   0.00002   0.00000   0.00056  -0.00023  -1.29348
   Y38        4.62172  -0.00001   0.00000   0.00510   0.00585   4.62758
   Z38        0.20768   0.00001   0.00000   0.02550   0.02713   0.23482
   X39       -0.32159   0.00001   0.00000  -0.00698  -0.00763  -0.32922
   Y39        3.48167   0.00001   0.00000   0.01802   0.01932   3.50098
   Z39       -1.97599   0.00001   0.00000   0.01533   0.01675  -1.95924
   X40       -1.64661  -0.00002   0.00000  -0.02295  -0.02351  -1.67012
   Y40        3.63678   0.00001   0.00000   0.01763   0.01939   3.65617
   Z40       -4.24854   0.00001   0.00000   0.02456   0.02596  -4.22257
   X41       -3.96907  -0.00003   0.00000  -0.03157  -0.03218  -4.00125
   Y41        4.87704   0.00002   0.00000   0.00357   0.00525   4.88229
   Z41       -4.37732   0.00004   0.00000   0.04418   0.04576  -4.33156
   X42       -4.95953  -0.00001   0.00000  -0.02405  -0.02480  -4.98433
   Y42        5.98658  -0.00001   0.00000  -0.01001  -0.00887   5.97770
   Z42       -2.20369   0.00003   0.00000   0.05449   0.05628  -2.14740
   X43       -3.62106   0.00001   0.00000  -0.00797  -0.00880  -3.62986
   Y43        5.86116  -0.00003   0.00000  -0.00886  -0.00818   5.85297
   Z43        0.06302   0.00004   0.00000   0.04501   0.04684   0.10986
   X44        1.42780   0.00000   0.00000   0.00093   0.00032   1.42812
   Y44        2.40360   0.00003   0.00000   0.02857   0.02991   2.43351
   Z44       -1.81455  -0.00001   0.00000   0.00000   0.00125  -1.81331
   X45       -0.85125  -0.00002   0.00000  -0.02877  -0.02923  -0.88047
   Y45        2.78394   0.00003   0.00000   0.02862   0.03081   2.81475
   Z45       -5.94268   0.00001   0.00000   0.01630   0.01754  -5.92514
   X46       -4.99184  -0.00003   0.00000  -0.04411  -0.04465  -5.03649
   Y46        4.99088   0.00001   0.00000   0.00325   0.00529   4.99617
   Z46       -6.15391   0.00004   0.00000   0.05137   0.05294  -6.10097
   X47       -6.76906  -0.00001   0.00000  -0.03072  -0.03150  -6.80056
   Y47        6.95419  -0.00002   0.00000  -0.02142  -0.02035   6.93384
   Z47       -2.27370   0.00006   0.00000   0.06995   0.07190  -2.20180
   X48       -4.40355   0.00000   0.00000  -0.00212  -0.00306  -4.40661
   Y48        6.73500  -0.00003   0.00000  -0.01955  -0.01929   6.71571
   Z48        1.75215   0.00005   0.00000   0.05324   0.05523   1.80738
   X49        0.96994  -0.00008   0.00000   0.01597   0.01516   0.98510
   Y49        2.11776   0.00003   0.00000   0.00589   0.00600   2.12376
   Z49        3.43435   0.00003   0.00000   0.01474   0.01590   3.45025
   X50       -1.26039   0.00024   0.00000  -0.00252  -0.00317  -1.26357
   Y50        0.04925   0.00008   0.00000   0.00304   0.00339   0.05264
   Z50        1.99510  -0.00010   0.00000  -0.03002  -0.02944   1.96566
   X51        3.62903   0.00012   0.00000   0.00445   0.00373   3.63276
   Y51        0.96992   0.00000   0.00000  -0.00535  -0.00493   0.96499
   Z51        2.58395   0.00001   0.00000  -0.00561  -0.00461   2.57934
   X52        3.42116  -0.00009   0.00000  -0.01785  -0.01843   3.40273
   Y52       -0.06151   0.00005   0.00000  -0.00137  -0.00046  -0.06197
   Z52        0.39722   0.00002   0.00000  -0.00531  -0.00456   0.39266
   X53        4.00611  -0.00001   0.00000   0.01066   0.00992   4.01603
   Y53       -0.70772   0.00002   0.00000  -0.00970  -0.00972  -0.71744
   Z53        4.61726  -0.00001   0.00000  -0.01037  -0.00975   4.60751
   X54        2.73266   0.00000   0.00000   0.00235   0.00168   2.73434
   Y54       -2.02178  -0.00001   0.00000  -0.00291  -0.00294  -2.02472
   Z54        4.40977   0.00000   0.00000  -0.00248  -0.00221   4.40756
   X55        5.60982  -0.00002   0.00000   0.01821   0.01738   5.62720
   Y55        3.07831  -0.00002   0.00000  -0.01653  -0.01609   3.06222
   Z55        2.89585  -0.00003   0.00000  -0.01801  -0.01645   2.87941
   X56        5.10455   0.00004   0.00000   0.03736   0.03642   5.14096
   Y56        4.30580   0.00001   0.00000  -0.01441  -0.01435   4.29144
   Z56        4.48859   0.00001   0.00000  -0.01348  -0.01166   4.47693
   X57        7.37014   0.00001   0.00000   0.01626   0.01545   7.38559
   Y57        2.12861  -0.00004   0.00000  -0.02787  -0.02747   2.10113
   Z57        3.44665  -0.00002   0.00000  -0.03125  -0.02983   3.41682
   X58        0.13118   0.00001   0.00000   0.01737   0.01648   0.14767
   Y58        4.51754  -0.00002   0.00000   0.00648   0.00671   4.52426
   Z58        2.70939  -0.00001   0.00000   0.01592   0.01759   2.72699
   X59       -1.16016   0.00004   0.00000   0.02895   0.02798  -1.13218
   Y59        5.19998  -0.00003   0.00000   0.01107   0.01091   5.21089
   Z59        4.19243   0.00002   0.00000   0.02379   0.02557   4.21800
   X60        1.70132   0.00002   0.00000   0.01981   0.01887   1.72019
   Y60        5.87801   0.00000   0.00000   0.00319   0.00351   5.88152
   Z60        2.65588  -0.00000   0.00000   0.00302   0.00507   2.66095
   X61       -3.07041   0.00001   0.00000   0.00788   0.00703  -3.06338
   Y61       -0.49853   0.00001   0.00000   0.02779   0.02686  -0.47167
   Z61        7.21078  -0.00000   0.00000  -0.02294  -0.02254   7.18824
   X62       -1.41677   0.00001   0.00000   0.00955   0.00866  -1.40810
   Y62        0.71864   0.00002   0.00000   0.02393   0.02313   0.74178
   Z62        6.95980  -0.00000   0.00000  -0.03084  -0.03010   6.92970
   X63       -4.83160   0.00001   0.00000   0.00946   0.00857  -4.82302
   Y63        0.56176   0.00002   0.00000   0.03019   0.02922   0.59098
   Z63        7.05325  -0.00002   0.00000  -0.02419  -0.02362   7.02963
   X64       -2.98046   0.00000   0.00000   0.00932   0.00844  -2.97202
   Y64       -1.53410   0.00002   0.00000   0.03516   0.03382  -1.50028
   Z64        8.99149  -0.00002   0.00000  -0.01874  -0.01858   8.97291
   X65        6.08913   0.00001   0.00000   0.01131   0.01051   6.09965
   Y65        4.61413  -0.00000   0.00000  -0.01836  -0.01734   4.59678
   Z65        0.50068  -0.00001   0.00000  -0.02057  -0.01864   0.48205
   X66        6.75044  -0.00002   0.00000  -0.01342  -0.01410   6.73635
   Y66        3.33418  -0.00001   0.00000  -0.02309  -0.02171   3.31247
   Z66       -0.98714  -0.00001   0.00000  -0.02743  -0.02577  -1.01291
   X67        4.32534   0.00001   0.00000   0.01257   0.01177   4.33711
   Y67        5.42344   0.00001   0.00000  -0.00130  -0.00020   5.42324
   Z67       -0.22554  -0.00000   0.00000  -0.00464  -0.00259  -0.22813
   X68        8.00896   0.00001   0.00000   0.03519   0.03429   8.04325
   Y68        6.72344  -0.00004   0.00000  -0.03710  -0.03610   6.68734
   Z68        0.93594  -0.00002   0.00000  -0.03527  -0.03277   0.90317
   X69        8.39263   0.00003   0.00000   0.03070   0.02982   8.42246
   Y69        7.78340  -0.00003   0.00000  -0.03945  -0.03804   7.74537
   Z69       -0.79797  -0.00003   0.00000  -0.03771  -0.03496  -0.83293
   X70        7.32242   0.00005   0.00000   0.06044   0.05942   7.38184
   Y70        8.06325  -0.00002   0.00000  -0.03161  -0.03097   8.03229
   Z70        2.35796  -0.00002   0.00000  -0.02829  -0.02551   2.33245
   X71        9.80456   0.00002   0.00000   0.03369   0.03280   9.83736
   Y71        5.95761  -0.00004   0.00000  -0.05508  -0.05416   5.90345
   Z71        1.62641  -0.00003   0.00000  -0.05127  -0.04888   1.57753
   X72        9.15278   0.00000   0.00000  -0.00400  -0.00435   9.14842
   Y72       -4.48432   0.00001   0.00000   0.01856   0.01995  -4.46437
   Z72       -0.65324   0.00003   0.00000   0.02828   0.02825  -0.62499
   X73       10.29549  -0.00001   0.00000  -0.01030  -0.01073  10.28476
   Y73       -4.41134   0.00002   0.00000   0.02251   0.02356  -4.38778
   Z73        1.06254   0.00002   0.00000   0.03229   0.03233   1.09486
   X74       10.02148   0.00000   0.00000   0.00391   0.00367  10.02515
   Y74       -5.82720   0.00002   0.00000   0.01975   0.02149  -5.80571
   Z74       -1.96877   0.00003   0.00000   0.03232   0.03202  -1.93676
   X75        8.80367  -0.00001   0.00000  -0.00577  -0.00619   8.79748
   Y75       -1.89923   0.00002   0.00000   0.01683   0.01850  -1.88073
   Z75       -1.89672   0.00001   0.00000   0.02521   0.02577  -1.87095
   X76        8.31523   0.00000   0.00000  -0.01386  -0.01440   8.30083
   Y76       -0.51157   0.00000   0.00000   0.01664   0.01795  -0.49361
   Z76       -0.44511   0.00001   0.00000   0.02261   0.02347  -0.42164
   X77       10.45393  -0.00000   0.00000  -0.00363  -0.00403  10.44989
   Y77       -1.25217   0.00002   0.00000   0.01997   0.02195  -1.23022
   Z77       -2.95372   0.00003   0.00000   0.03049   0.03126  -2.92245
         Item               Value     Threshold  Converged?
 Maximum Force            0.000250     0.000450     YES
 RMS     Force            0.000033     0.000300     YES
 Maximum Displacement     0.071896     0.001800     NO 
 RMS     Displacement     0.019729     0.001200     NO 
 Predicted change in Energy=-6.421660D-05
 GradGradGradGradGradGradGradGradGradGradGradGradGradGradGradGradGradGrad

 Leave Link  103 at Thu Feb  7 09:27:23 2019, MaxMem=   104857600 cpu:              31.7 elap:               1.4
 (Enter /home/xinyan/g16/l9999.exe)
 1\1\GINC-TSE4\Force\RM062X\6-31G(d)\C27H41N3O5S1\STEVETSE\07-Feb-2019\
 0\\#p M062X/6-31G* em=gd3 force int=ultrafine\\Title\\0,1\C,-4.97385,0
 .25169,-0.38714\C,-5.1315,-1.02091,-1.22436\C,-3.78358,-1.4592,-1.8097
 3\C,-2.79794,-1.69758,-0.67009\C,-2.61141,-0.40969,0.16827\C,-3.95407,
 0.05807,0.73817\H,-3.8863,-2.36559,-2.41577\H,-5.53404,-1.82708,-0.597
 08\H,-5.84759,-0.8593,-2.03608\H,-4.63567,1.07014,-1.03738\H,-5.9404,0
 .55073,0.03085\H,-3.18412,-2.48657,-0.01655\H,-2.25848,0.36707,-0.5226
 6\H,-4.3207,-0.67777,1.46216\H,-3.78393,1.00186,1.26894\H,-3.41875,-0.
 65601,-2.464\N,-1.46109,-2.15323,-1.10773\C,-0.7781,-1.47323,-2.06669\
 C,-0.76261,-2.96461,-0.27015\C,0.57432,-1.55352,-2.19444\H,-1.36955,-0
 .83537,-2.71074\C,0.59157,-3.08493,-0.3258\H,-1.34701,-3.47336,0.48863
 \C,1.33766,-2.29237,-1.24132\H,1.05966,-0.98485,-2.97649\H,1.0777,-3.7
 0282,0.41582\N,2.66482,-2.25329,-1.21076\C,3.40346,-2.77553,-0.05017\H
 ,3.26869,-3.85728,0.03915\H,3.02776,-2.26437,0.8474\C,3.42935,-1.19553
 ,-1.89439\H,3.6922,-1.52217,-2.90833\H,2.83029,-0.2829,-1.92421\N,-1.5
 3151,-0.54348,1.12935\S,-1.55484,-1.44485,2.48717\O,-2.77458,-2.25475,
 2.44922\O,-0.27199,-2.13522,2.62422\C,-0.68436,2.44571,0.1099\C,-0.170
 18,1.84242,-1.04565\C,-0.87135,1.9245,-2.24823\C,-2.10034,2.58082,-2.3
 1638\C,-2.62447,3.16796,-1.16614\C,-1.91618,3.10159,0.03335\H,0.75556,
 1.27193,-0.96022\H,-0.45046,1.4732,-3.14473\H,-2.64157,2.64106,-3.2565
 1\H,-3.58203,3.68,-1.20319\H,-2.33026,3.56401,0.9272\O,0.51327,1.12067
 ,1.81738\H,-0.66697,0.02606,1.05576\C,1.9204,0.51326,1.36737\O,1.8104,
 -0.03255,0.2102\O,2.11994,-0.37451,2.44335\H,1.44606,-1.06988,2.33355\
 C,2.96859,1.62897,1.53242\H,2.70121,2.27853,2.37526\H,3.90011,1.12641,
 1.82389\C,0.06942,2.39058,1.43375\H,-0.61393,2.75171,2.21854\H,0.9003,
 3.11051,1.40543\C,-1.62479,-0.26381,3.81578\H,-0.74972,0.38029,3.68297
 \H,-2.55677,0.29727,3.73242\H,-1.57719,-0.81181,4.75809\C,3.22223,2.44
 169,0.26495\H,3.57218,1.76437,-0.52237\H,2.28887,2.86996,-0.11935\C,4.
 23816,3.55789,0.49528\H,4.44119,4.1188,-0.42227\H,3.87486,4.26689,1.24
 778\H,5.18835,3.15263,0.86066\C,4.84344,-2.373,-0.34568\H,5.44814,-2.3
 3438,0.56227\H,5.30314,-3.08362,-1.04183\C,4.6587,-1.00503,-1.0037\H,4
 .40023,-0.27071,-0.23554\H,5.53198,-0.66262,-1.56304\\Version=ES64L-G1
 6RevA.03\State=1-A\HF=-1991.3555347\RMSD=4.813e-09\RMSF=3.329e-05\Dipo
 le=-1.3679538,-0.5865699,-2.2604623\Quadrupole=6.2243588,-5.0056114,-1
 .2187473,-9.9505113,-3.2617509,7.9141019\PG=C01 [X(C27H41N3O5S1)]\\@


 K N O W I N G  IS A BARRIER WHICH PREVENTS LEARNING

                     -- TEACHING OF THE BENE GESSERIT
 Job cpu time:       0 days  1 hours 23 minutes 17.5 seconds.
 Elapsed time:       0 days  0 hours  3 minutes 30.3 seconds.
 File lengths (MBytes):  RWF=    216 Int=      0 D2E=      0 Chk=     25 Scr=      1
 Normal termination of Gaussian 16 at Thu Feb  7 09:27:23 2019.
