 Entering Gaussian System, Link 0=g16
 Input=C27N3H41SO5-273.gjf
 Output=C27N3H41SO5-273.log
 Initial command:
 /home/xinyan/g16/l1.exe "/local/home/tmp/Gau-11347.inp" -scrdir="/local/home/tmp/"
 Entering Link 1 = /home/xinyan/g16/l1.exe PID=     11348.
  
 Copyright (c) 1988,1990,1992,1993,1995,1998,2003,2009,2016,
            Gaussian, Inc.  All Rights Reserved.
  
 This is part of the Gaussian(R) 16 program.  It is based on
 the Gaussian(R) 09 system (copyright 2009, Gaussian, Inc.),
 the Gaussian(R) 03 system (copyright 2003, Gaussian, Inc.),
 the Gaussian(R) 98 system (copyright 1998, Gaussian, Inc.),
 the Gaussian(R) 94 system (copyright 1995, Gaussian, Inc.),
 the Gaussian 92(TM) system (copyright 1992, Gaussian, Inc.),
 the Gaussian 90(TM) system (copyright 1990, Gaussian, Inc.),
 the Gaussian 88(TM) system (copyright 1988, Gaussian, Inc.),
 the Gaussian 86(TM) system (copyright 1986, Carnegie Mellon
 University), and the Gaussian 82(TM) system (copyright 1983,
 Carnegie Mellon University). Gaussian is a federally registered
 trademark of Gaussian, Inc.
  
 This software contains proprietary and confidential information,
 including trade secrets, belonging to Gaussian, Inc.
  
 This software is provided under written license and may be
 used, copied, transmitted, or stored only in accord with that
 written license.
  
 The following legend is applicable only to US Government
 contracts under FAR:
  
                    RESTRICTED RIGHTS LEGEND
  
 Use, reproduction and disclosure by the US Government is
 subject to restrictions as set forth in subparagraphs (a)
 and (c) of the Commercial Computer Software - Restricted
 Rights clause in FAR 52.227-19.
  
 Gaussian, Inc.
 340 Quinnipiac St., Bldg. 40, Wallingford CT 06492
  
  
 ---------------------------------------------------------------
 Warning -- This program may not be used in any manner that
 competes with the business of Gaussian, Inc. or will provide
 assistance to any competitor of Gaussian, Inc.  The licensee
 of this program is prohibited from giving any competitor of
 Gaussian, Inc. access to this program.  By using this program,
 the user acknowledges that Gaussian, Inc. is engaged in the
 business of creating and licensing software in the field of
 computational chemistry and represents and warrants to the
 licensee that it is not a competitor of Gaussian, Inc. and that
 it will not use this program in any manner prohibited above.
 ---------------------------------------------------------------
  

 Cite this work as:
 Gaussian 16, Revision A.03,
 M. J. Frisch, G. W. Trucks, H. B. Schlegel, G. E. Scuseria, 
 M. A. Robb, J. R. Cheeseman, G. Scalmani, V. Barone, 
 G. A. Petersson, H. Nakatsuji, X. Li, M. Caricato, A. V. Marenich, 
 J. Bloino, B. G. Janesko, R. Gomperts, B. Mennucci, H. P. Hratchian, 
 J. V. Ortiz, A. F. Izmaylov, J. L. Sonnenberg, D. Williams-Young, 
 F. Ding, F. Lipparini, F. Egidi, J. Goings, B. Peng, A. Petrone, 
 T. Henderson, D. Ranasinghe, V. G. Zakrzewski, J. Gao, N. Rega, 
 G. Zheng, W. Liang, M. Hada, M. Ehara, K. Toyota, R. Fukuda, 
 J. Hasegawa, M. Ishida, T. Nakajima, Y. Honda, O. Kitao, H. Nakai, 
 T. Vreven, K. Throssell, J. A. Montgomery, Jr., J. E. Peralta, 
 F. Ogliaro, M. J. Bearpark, J. J. Heyd, E. N. Brothers, K. N. Kudin, 
 V. N. Staroverov, T. A. Keith, R. Kobayashi, J. Normand, 
 K. Raghavachari, A. P. Rendell, J. C. Burant, S. S. Iyengar, 
 J. Tomasi, M. Cossi, J. M. Millam, M. Klene, C. Adamo, R. Cammi, 
 J. W. Ochterski, R. L. Martin, K. Morokuma, O. Farkas, 
 J. B. Foresman, and D. J. Fox, Gaussian, Inc., Wallingford CT, 2016.
 
 ******************************************
 Gaussian 16:  ES64L-G16RevA.03 25-Dec-2016
                 7-Feb-2019 
 ******************************************
 %nproc=24
 Will use up to   24 processors via shared memory.
 ------------------------------------------
 #p M062X/6-31G* em=gd3 force int=ultrafine
 ------------------------------------------
 1/10=7,30=1,38=1/1,3;
 2/12=2,17=6,18=5,40=1/2;
 3/5=1,6=6,7=1,11=2,25=1,30=1,71=1,74=-55,75=-5,124=31/1,2,3;
 4//1;
 5/5=2,38=5/2;
 6/7=2,8=2,9=2,10=2,28=1/1;
 7/29=1/1,2,3,16;
 1/10=7,30=1/3;
 99//99;
 Leave Link    1 at Thu Feb  7 23:41:13 2019, MaxMem=           0 cpu:               2.5 elap:               0.1
 (Enter /home/xinyan/g16/l101.exe)
 -----
 Title
 -----
 Symbolic Z-matrix:
 Charge =  0 Multiplicity = 1
 C                    -4.95066   0.23804  -0.29087 
 C                    -5.09673  -1.01896  -1.15381 
 C                    -3.74552  -1.43262  -1.74947 
 C                    -2.75447  -1.66217  -0.6129 
 C                    -2.55254  -0.37036   0.23015 
 C                    -3.91076   0.04308   0.81678 
 H                    -3.84247  -2.33637  -2.36207 
 H                    -5.4886   -1.84205  -0.54197 
 H                    -5.81664  -0.85012  -1.96147 
 H                    -4.63288   1.07371  -0.93031 
 H                    -5.92013   0.51318   0.13803 
 H                    -3.1304   -2.45202   0.04322 
 H                    -2.27595   0.40912  -0.49565 
 H                    -4.24619  -0.72199   1.52851 
 H                    -3.7647    0.97776   1.3714 
 H                    -3.39766  -0.61938  -2.40126 
 N                    -1.42092  -2.12264  -1.06537 
 C                    -0.75547  -1.46262  -2.0411 
 C                    -0.7265   -2.9467   -0.24565 
 C                     0.59343  -1.58451  -2.21379 
 H                    -1.35053  -0.80857  -2.66534 
 C                     0.62437  -3.11549  -0.35282 
 H                    -1.30045  -3.42302   0.54196 
 C                     1.35772  -2.35709  -1.29592 
 H                     1.0685   -1.03474  -3.01558 
 H                     1.11371  -3.74356   0.37831 
 N                     2.69782  -2.3547   -1.30416 
 C                     3.44944  -2.92611  -0.17954 
 H                     3.31936  -4.0115   -0.13806 
 H                     3.08133  -2.48565   0.7577 
 C                     3.47017  -1.31184  -1.99641 
 H                     3.71202  -1.63507  -3.01626 
 H                     2.89068  -0.38551  -2.03132 
 N                    -1.4289   -0.44261   1.14011 
 S                    -1.46084  -1.40838   2.38931 
 O                    -2.53847  -2.42183   2.34325 
 O                    -0.10057  -1.9711    2.61082 
 C                    -0.95733   2.69995   0.07752 
 C                    -0.31204   2.00185  -0.94965 
 C                    -0.87408   1.96547  -2.22379 
 C                    -2.09839   2.58417  -2.47985 
 C                    -2.75768   3.25161  -1.45024 
 C                    -2.18359   3.31014  -0.1823 
 H                     0.60384   1.45489  -0.73223 
 H                    -0.35451   1.44493  -3.0252 
 H                    -2.5367    2.54699  -3.47276 
 H                    -3.7181    3.72561  -1.63037 
 H                    -2.69813   3.82753   0.62441 
 O                     0.2636    1.57839   1.85038 
 H                    -0.321     0.82809   1.5326 
 C                     2.37187   0.20661   1.37609 
 O                     2.01387  -0.16909   0.27335 
 O                     2.11667  -0.45213   2.49515 
 H                     1.36181  -1.09      2.36498 
 C                     3.20866   1.44353   1.60533 
 H                     2.74836   1.98652   2.43617 
 H                     4.20351   1.125     1.94718 
 C                    -0.34542   2.77437   1.46065 
 H                    -1.12073   3.0936    2.17664 
 H                     0.43414   3.55071   1.4742 
 C                    -1.74718  -0.38199   3.82826 
 H                    -0.97589   0.39206   3.82388 
 H                    -2.74017   0.0628    3.7385 
 H                    -1.6776   -0.9998    4.72454 
 C                     3.31034   2.31972   0.36318 
 H                     3.69831   1.72685  -0.47398 
 H                     2.30084   2.62927   0.06998 
 C                     4.18865   3.54664   0.58819 
 H                     4.26258   4.15433  -0.31833 
 H                     3.7817    4.17936   1.38392 
 H                     5.20346   3.25691   0.882 
 C                     4.89042  -2.51173  -0.46435 
 H                     5.48919  -2.47178   0.4478 
 H                     5.35846  -3.22181  -1.1537 
 C                     4.72292  -1.14452  -1.1317 
 H                     4.52264  -0.38521  -0.37056 
 H                     5.59312  -0.83543  -1.71435 
 
 ITRead=  0  0  0  0  0  0  0  0  0  0  0  0  0  0  0  0  0  0  0  0
 ITRead=  0  0  0  0  0  0  0  0  0  0  0  0  0  0  0  0  0  0  0  0
 ITRead=  0  0  0  0  0  0  0  0  0  0  0  0  0  0  0  0  0  0  0  0
 ITRead=  0  0  0  0  0  0  0  0  0  0  0  0  0  0  0  0  0
 MicOpt= -1 -1 -1 -1 -1 -1 -1 -1 -1 -1 -1 -1 -1 -1 -1 -1 -1 -1 -1 -1
 MicOpt= -1 -1 -1 -1 -1 -1 -1 -1 -1 -1 -1 -1 -1 -1 -1 -1 -1 -1 -1 -1
 MicOpt= -1 -1 -1 -1 -1 -1 -1 -1 -1 -1 -1 -1 -1 -1 -1 -1 -1 -1 -1 -1
 MicOpt= -1 -1 -1 -1 -1 -1 -1 -1 -1 -1 -1 -1 -1 -1 -1 -1 -1
 NAtoms=     77 NQM=       77 NQMF=       0 NMMI=      0 NMMIF=      0
                NMic=       0 NMicF=      0.
                    Isotopes and Nuclear Properties:
 (Nuclear quadrupole moments (NQMom) in fm**2, nuclear magnetic moments (NMagM)
  in nuclear magnetons)

  Atom         1           2           3           4           5           6           7           8           9          10
 IAtWgt=          12          12          12          12          12          12           1           1           1           1
 AtmWgt=  12.0000000  12.0000000  12.0000000  12.0000000  12.0000000  12.0000000   1.0078250   1.0078250   1.0078250   1.0078250
 NucSpn=           0           0           0           0           0           0           1           1           1           1
 AtZEff=  -0.0000000  -0.0000000  -0.0000000  -0.0000000  -0.0000000  -0.0000000  -0.0000000  -0.0000000  -0.0000000  -0.0000000
 NQMom=    0.0000000   0.0000000   0.0000000   0.0000000   0.0000000   0.0000000   0.0000000   0.0000000   0.0000000   0.0000000
 NMagM=    0.0000000   0.0000000   0.0000000   0.0000000   0.0000000   0.0000000   2.7928460   2.7928460   2.7928460   2.7928460
 AtZNuc=   6.0000000   6.0000000   6.0000000   6.0000000   6.0000000   6.0000000   1.0000000   1.0000000   1.0000000   1.0000000

  Atom        11          12          13          14          15          16          17          18          19          20
 IAtWgt=           1           1           1           1           1           1          14          12          12          12
 AtmWgt=   1.0078250   1.0078250   1.0078250   1.0078250   1.0078250   1.0078250  14.0030740  12.0000000  12.0000000  12.0000000
 NucSpn=           1           1           1           1           1           1           2           0           0           0
 AtZEff=  -0.0000000  -0.0000000  -0.0000000  -0.0000000  -0.0000000  -0.0000000  -0.0000000  -0.0000000  -0.0000000  -0.0000000
 NQMom=    0.0000000   0.0000000   0.0000000   0.0000000   0.0000000   0.0000000   2.0440000   0.0000000   0.0000000   0.0000000
 NMagM=    2.7928460   2.7928460   2.7928460   2.7928460   2.7928460   2.7928460   0.4037610   0.0000000   0.0000000   0.0000000
 AtZNuc=   1.0000000   1.0000000   1.0000000   1.0000000   1.0000000   1.0000000   7.0000000   6.0000000   6.0000000   6.0000000

  Atom        21          22          23          24          25          26          27          28          29          30
 IAtWgt=           1          12           1          12           1           1          14          12           1           1
 AtmWgt=   1.0078250  12.0000000   1.0078250  12.0000000   1.0078250   1.0078250  14.0030740  12.0000000   1.0078250   1.0078250
 NucSpn=           1           0           1           0           1           1           2           0           1           1
 AtZEff=  -0.0000000  -0.0000000  -0.0000000  -0.0000000  -0.0000000  -0.0000000  -0.0000000  -0.0000000  -0.0000000  -0.0000000
 NQMom=    0.0000000   0.0000000   0.0000000   0.0000000   0.0000000   0.0000000   2.0440000   0.0000000   0.0000000   0.0000000
 NMagM=    2.7928460   0.0000000   2.7928460   0.0000000   2.7928460   2.7928460   0.4037610   0.0000000   2.7928460   2.7928460
 AtZNuc=   1.0000000   6.0000000   1.0000000   6.0000000   1.0000000   1.0000000   7.0000000   6.0000000   1.0000000   1.0000000

  Atom        31          32          33          34          35          36          37          38          39          40
 IAtWgt=          12           1           1          14          32          16          16          12          12          12
 AtmWgt=  12.0000000   1.0078250   1.0078250  14.0030740  31.9720718  15.9949146  15.9949146  12.0000000  12.0000000  12.0000000
 NucSpn=           0           1           1           2           0           0           0           0           0           0
 AtZEff=  -0.0000000  -0.0000000  -0.0000000  -0.0000000  -0.0000000  -0.0000000  -0.0000000  -0.0000000  -0.0000000  -0.0000000
 NQMom=    0.0000000   0.0000000   0.0000000   2.0440000   0.0000000   0.0000000   0.0000000   0.0000000   0.0000000   0.0000000
 NMagM=    0.0000000   2.7928460   2.7928460   0.4037610   0.0000000   0.0000000   0.0000000   0.0000000   0.0000000   0.0000000
 AtZNuc=   6.0000000   1.0000000   1.0000000   7.0000000  16.0000000   8.0000000   8.0000000   6.0000000   6.0000000   6.0000000

  Atom        41          42          43          44          45          46          47          48          49          50
 IAtWgt=          12          12          12           1           1           1           1           1          16           1
 AtmWgt=  12.0000000  12.0000000  12.0000000   1.0078250   1.0078250   1.0078250   1.0078250   1.0078250  15.9949146   1.0078250
 NucSpn=           0           0           0           1           1           1           1           1           0           1
 AtZEff=  -0.0000000  -0.0000000  -0.0000000  -0.0000000  -0.0000000  -0.0000000  -0.0000000  -0.0000000  -0.0000000  -0.0000000
 NQMom=    0.0000000   0.0000000   0.0000000   0.0000000   0.0000000   0.0000000   0.0000000   0.0000000   0.0000000   0.0000000
 NMagM=    0.0000000   0.0000000   0.0000000   2.7928460   2.7928460   2.7928460   2.7928460   2.7928460   0.0000000   2.7928460
 AtZNuc=   6.0000000   6.0000000   6.0000000   1.0000000   1.0000000   1.0000000   1.0000000   1.0000000   8.0000000   1.0000000

  Atom        51          52          53          54          55          56          57          58          59          60
 IAtWgt=          12          16          16           1          12           1           1          12           1           1
 AtmWgt=  12.0000000  15.9949146  15.9949146   1.0078250  12.0000000   1.0078250   1.0078250  12.0000000   1.0078250   1.0078250
 NucSpn=           0           0           0           1           0           1           1           0           1           1
 AtZEff=  -0.0000000  -0.0000000  -0.0000000  -0.0000000  -0.0000000  -0.0000000  -0.0000000  -0.0000000  -0.0000000  -0.0000000
 NQMom=    0.0000000   0.0000000   0.0000000   0.0000000   0.0000000   0.0000000   0.0000000   0.0000000   0.0000000   0.0000000
 NMagM=    0.0000000   0.0000000   0.0000000   2.7928460   0.0000000   2.7928460   2.7928460   0.0000000   2.7928460   2.7928460
 AtZNuc=   6.0000000   8.0000000   8.0000000   1.0000000   6.0000000   1.0000000   1.0000000   6.0000000   1.0000000   1.0000000

  Atom        61          62          63          64          65          66          67          68          69          70
 IAtWgt=          12           1           1           1          12           1           1          12           1           1
 AtmWgt=  12.0000000   1.0078250   1.0078250   1.0078250  12.0000000   1.0078250   1.0078250  12.0000000   1.0078250   1.0078250
 NucSpn=           0           1           1           1           0           1           1           0           1           1
 AtZEff=  -0.0000000  -0.0000000  -0.0000000  -0.0000000  -0.0000000  -0.0000000  -0.0000000  -0.0000000  -0.0000000  -0.0000000
 NQMom=    0.0000000   0.0000000   0.0000000   0.0000000   0.0000000   0.0000000   0.0000000   0.0000000   0.0000000   0.0000000
 NMagM=    0.0000000   2.7928460   2.7928460   2.7928460   0.0000000   2.7928460   2.7928460   0.0000000   2.7928460   2.7928460
 AtZNuc=   6.0000000   1.0000000   1.0000000   1.0000000   6.0000000   1.0000000   1.0000000   6.0000000   1.0000000   1.0000000

  Atom        71          72          73          74          75          76          77
 IAtWgt=           1          12           1           1          12           1           1
 AtmWgt=   1.0078250  12.0000000   1.0078250   1.0078250  12.0000000   1.0078250   1.0078250
 NucSpn=           1           0           1           1           0           1           1
 AtZEff=  -0.0000000  -0.0000000  -0.0000000  -0.0000000  -0.0000000  -0.0000000  -0.0000000
 NQMom=    0.0000000   0.0000000   0.0000000   0.0000000   0.0000000   0.0000000   0.0000000
 NMagM=    2.7928460   0.0000000   2.7928460   2.7928460   0.0000000   2.7928460   2.7928460
 AtZNuc=   1.0000000   6.0000000   1.0000000   1.0000000   6.0000000   1.0000000   1.0000000
 Leave Link  101 at Thu Feb  7 23:41:14 2019, MaxMem=   104857600 cpu:               5.7 elap:               0.3
 (Enter /home/xinyan/g16/l103.exe)

 GradGradGradGradGradGradGradGradGradGradGradGradGradGradGradGradGradGrad
 Berny optimization.
 Initialization pass.
 Trust Radius=3.00D-01 FncErr=1.00D-07 GrdErr=1.00D-07 EigMax=2.50D+02 EigMin=1.00D-04
 Number of steps in this run=      2 maximum allowed number of steps=      2.
 GradGradGradGradGradGradGradGradGradGradGradGradGradGradGradGradGradGrad

 Leave Link  103 at Thu Feb  7 23:41:14 2019, MaxMem=   104857600 cpu:               1.6 elap:               0.1
 (Enter /home/xinyan/g16/l202.exe)
 Stoichiometry    C27H41N3O5S
 Framework group  C1[X(C27H41N3O5S)]
 Deg. of freedom   225
 Full point group                 C1      NOp   1
 Largest Abelian subgroup         C1      NOp   1
 Largest concise Abelian subgroup C1      NOp   1
                         Standard orientation:                         
 ---------------------------------------------------------------------
 Center     Atomic      Atomic             Coordinates (Angstroms)
 Number     Number       Type             X           Y           Z
 ---------------------------------------------------------------------
      1          6           0       -4.870228    0.124239   -0.437342
      2          6           0       -4.932695   -1.167017   -1.258808
      3          6           0       -3.557686   -1.507841   -1.846075
      4          6           0       -2.551491   -1.633240   -0.706553
      5          6           0       -2.435671   -0.304155    0.093697
      6          6           0       -3.817675    0.035685    0.671973
      7          1           0       -3.594533   -2.435423   -2.428892
      8          1           0       -5.267152   -1.994382   -0.619282
      9          1           0       -5.663717   -1.073257   -2.068690
     10          1           0       -4.610588    0.958268   -1.104571
     11          1           0       -5.855312    0.347230   -0.013768
     12          1           0       -2.872209   -2.424952   -0.023902
     13          1           0       -2.213486    0.468272   -0.657879
     14          1           0       -4.099562   -0.726789    1.409251
     15          1           0       -3.734013    0.995540    1.195655
     16          1           0       -3.266543   -0.694554   -2.525043
     17          7           0       -1.190703   -2.017297   -1.149130
     18          6           0       -0.572914   -1.345909   -2.148166
     19          6           0       -0.440925   -2.765772   -0.306009
     20          6           0        0.780840   -1.382242   -2.322067
     21          1           0       -1.211767   -0.753953   -2.790823
     22          6           0        0.918067   -2.846620   -0.412923
     23          1           0       -0.980124   -3.253903    0.498739
     24          6           0        1.597026   -2.071499   -1.382775
     25          1           0        1.216410   -0.827981   -3.142969
     26          1           0        1.449871   -3.416325    0.336142
     27          7           0        2.933901   -1.979168   -1.396278
     28          6           0        3.724235   -2.461977   -0.256770
     29          1           0        3.667687   -3.551749   -0.179876
     30          1           0        3.328861   -2.017189    0.667228
     31          6           0        3.633020   -0.909636   -2.124718
     32          1           0        3.894380   -1.248696   -3.134566
     33          1           0        2.992347   -0.026035   -2.187178
     34          7           0       -1.308176   -0.271104    1.001152
     35         16           0       -1.272823   -1.195888    2.280901
     36          8           0       -2.279762   -2.280543    2.271655
     37          8           0        0.122659   -1.658293    2.515137
     38          6           0       -1.051319    2.860025   -0.163844
     39          6           0       -0.362180    2.174065   -1.170506
     40          6           0       -0.922649    2.058705   -2.440629
     41          6           0       -2.186313    2.584968   -2.711724
     42          6           0       -2.887348    3.239490   -1.701583
     43          6           0       -2.316361    3.377548   -0.438416
     44          1           0        0.588854    1.697328   -0.939144
     45          1           0       -0.370531    1.548654   -3.226877
     46          1           0       -2.622802    2.486243   -3.701219
     47          1           0       -3.877840    3.641679   -1.893153
     48          1           0       -2.863239    3.884968    0.353211
     49          8           0        0.245442    1.881180    1.639452
     50          1           0       -0.287789    1.083334    1.348250
     51          6           0        2.440580    0.639807    1.201395
     52          8           0        2.106851    0.205359    0.112712
     53          8           0        2.232264    0.001953    2.342055
     54          1           0        1.521900   -0.689166    2.235406
     55          6           0        3.192474    1.937024    1.387465
     56          1           0        2.698028    2.474405    2.202176
     57          1           0        4.207112    1.697423    1.735534
     58          6           0       -0.443473    3.020204    1.213795
     59          1           0       -1.237323    3.309526    1.922137
     60          1           0        0.282003    3.847293    1.199333
     61          6           0       -1.625260   -0.145061    3.687171
     62          1           0       -0.907911    0.678607    3.654895
     63          1           0       -2.646125    0.228733    3.586989
     64          1           0       -1.512672   -0.727447    4.602594
     65          6           0        3.232753    2.777401    0.117375
     66          1           0        3.658386    2.185206   -0.701767
     67          1           0        2.204187    3.008636   -0.181723
     68          6           0        4.026740    4.067305    0.299379
     69          1           0        4.058001    4.648929   -0.626508
     70          1           0        3.579414    4.696620    1.075904
     71          1           0        5.059269    3.856211    0.598429
     72          6           0        5.133519   -1.960969   -0.560347
     73          1           0        5.729780   -1.851294    0.347719
     74          1           0        5.647191   -2.659872   -1.228294
     75          6           0        4.873106   -0.630457   -1.270699
     76          1           0        4.623388    0.137888   -0.533620
     77          1           0        5.719502   -0.282511   -1.866360
 ---------------------------------------------------------------------
 Rotational constants (GHZ):           0.1445498           0.0968812           0.0864783
 Leave Link  202 at Thu Feb  7 23:41:14 2019, MaxMem=   104857600 cpu:               2.4 elap:               0.1
 (Enter /home/xinyan/g16/l301.exe)
 Standard basis: 6-31G(d) (6D, 7F)
 Ernie: Thresh=  0.10000D-02 Tol=  0.10000D-05 Strict=F.
 There are   626 symmetry adapted cartesian basis functions of A   symmetry.
 There are   626 symmetry adapted basis functions of A   symmetry.
   626 basis functions,  1196 primitive gaussians,   626 cartesian basis functions
   140 alpha electrons      140 beta electrons
       nuclear repulsion energy      4893.3730838160 Hartrees.
 IExCor= 4336 DFT=T Ex+Corr=M062X ExCW=0 ScaHFX=  0.540000
 ScaDFX=  1.000000  1.000000  1.000000  1.000000 ScalE2=  1.000000  1.000000
 IRadAn=      5 IRanWt=     -1 IRanGd=            0 ICorTp=0 IEmpDi=131
 NAtoms=   77 NActive=   77 NUniq=   77 SFac= 1.00D+00 NAtFMM=   60 NAOKFM=T Big=T
 Integral buffers will be    131072 words long.
 Raffenetti 2 integral format.
 Two-electron integral symmetry is turned on.
 R6Disp:  Grimme-D3 Dispersion energy=       -0.0106376557 Hartrees.
 Nuclear repulsion after empirical dispersion term =     4893.3624461602 Hartrees.
 Leave Link  301 at Thu Feb  7 23:41:14 2019, MaxMem=   104857600 cpu:               3.0 elap:               0.1
 (Enter /home/xinyan/g16/l302.exe)
 NPDir=0 NMtPBC=     1 NCelOv=     1 NCel=       1 NClECP=     1 NCelD=      1
         NCelK=      1 NCelE2=     1 NClLst=     1 CellRange=     0.0.
 One-electron integrals computed using PRISM.
 One-electron integral symmetry used in STVInt
 PrsmSu:  requested number of processors reduced to:  23 ShMem   1 Linda.
 NBasis=   626 RedAO= T EigKep=  4.35D-04  NBF=   626
 NBsUse=   626 1.00D-06 EigRej= -1.00D+00 NBFU=   626
 Precomputing XC quadrature grid using
 IXCGrd= 4 IRadAn=           5 IRanWt=          -1 IRanGd=           0 AccXCQ= 0.00D+00.
 Generated NRdTot=       0 NPtTot=           0 NUsed=           0 NTot=          32
 NSgBfM=   614   614   614   614   614 MxSgAt=    77 MxSgA2=    77.
 Leave Link  302 at Thu Feb  7 23:41:18 2019, MaxMem=   104857600 cpu:              80.9 elap:               3.5
 (Enter /home/xinyan/g16/l303.exe)
 DipDrv:  MaxL=1.
 Leave Link  303 at Thu Feb  7 23:41:18 2019, MaxMem=   104857600 cpu:               4.7 elap:               0.2
 (Enter /home/xinyan/g16/l401.exe)
 ExpMin= 1.17D-01 ExpMax= 2.19D+04 ExpMxC= 3.30D+03 IAcc=3 IRadAn=         5 AccDes= 0.00D+00
 Harris functional with IExCor= 1009 and IRadAn=       5 diagonalized for initial guess.
 HarFok:  IExCor= 1009 AccDes= 0.00D+00 IRadAn=         5 IDoV= 1 UseB2=F ITyADJ=14
 ICtDFT=  3500011 ScaDFX=  1.000000  1.000000  1.000000  1.000000
 FoFCou: FMM=F IPFlag=           0 FMFlag=      100000 FMFlg1=        2001
         NFxFlg=           0 DoJE=T BraDBF=F KetDBF=T FulRan=T
         wScrn=  0.000000 ICntrl=       500 IOpCl=  0 I1Cent=   200000004 NGrid=           0
         NMat0=    1 NMatS0=      1 NMatT0=    0 NMatD0=    1 NMtDS0=    0 NMtDT0=    0
 Petite list used in FoFCou.
 Harris En= -1990.55019254006    
 JPrj=0 DoOrth=F DoCkMO=F.
 Leave Link  401 at Thu Feb  7 23:41:22 2019, MaxMem=   104857600 cpu:              97.6 elap:               4.1
 (Enter /home/xinyan/g16/l502.exe)
 Integral symmetry usage will be decided dynamically.
 Closed shell SCF:
 Using DIIS extrapolation, IDIIS=  1040.
 NGot=   104857600 LenX=   104051656 LenY=   103659154
 Requested convergence on RMS density matrix=1.00D-08 within 128 cycles.
 Requested convergence on MAX density matrix=1.00D-06.
 Requested convergence on             energy=1.00D-06.
 No special actions if energy rises.
 Fock matrices will be formed incrementally for  20 cycles.
 Integral accuracy reduced to 1.0D-05 until final iterations.

 Cycle   1  Pass 0  IDiag  1:
 FoFJK:  IHMeth= 1 ICntrl=       0 DoSepK=F KAlg= 0 I1Cent=           0 FoldK=F
 IRaf= 990000000 NMat=       1 IRICut=       1 DoRegI=T DoRafI=F ISym2E= 0 IDoP0=0 IntGTp=1.
 FoFCou: FMM=T IPFlag=           0 FMFlag=      100000 FMFlg1=        2001
         NFxFlg=           0 DoJE=F BraDBF=F KetDBF=F FulRan=T
         wScrn=  0.000000 ICntrl=         0 IOpCl=  0 I1Cent=           0 NGrid=           0
         NMat0=    1 NMatS0=      1 NMatT0=    0 NMatD0=    1 NMtDS0=    0 NMtDT0=    0
 Symmetry not used in FoFCou.
 FMM levels:  10  Number of levels for PrismC:   9
 E= -1990.34903083964    
 DIIS: error= 2.88D-02 at cycle   1 NSaved=   1.
 NSaved= 1 IEnMin= 1 EnMin= -1990.34903083964     IErMin= 1 ErrMin= 2.88D-02
 ErrMax= 2.88D-02  0.00D+00 EMaxC= 1.00D-01 BMatC= 1.22D+00 BMatP= 1.22D+00
 IDIUse=3 WtCom= 7.12D-01 WtEn= 2.88D-01
 Coeff-Com:  0.100D+01
 Coeff-En:   0.100D+01
 Coeff:      0.100D+01
 Gap=     0.374 Goal=   None    Shift=    0.000
 GapD=    0.374 DampG=1.000 DampE=0.500 DampFc=0.5000 IDamp=-1.
 Damping current iteration by 5.00D-01
 RMSDP=3.21D-03 MaxDP=3.20D-01              OVMax= 1.40D-01

 Cycle   2  Pass 0  IDiag  1:
 RMSU=  1.59D-03    CP:  9.87D-01
 E= -1990.86232112942     Delta-E=       -0.513290289779 Rises=F Damp=T
 DIIS: error= 9.22D-03 at cycle   2 NSaved=   2.
 NSaved= 2 IEnMin= 2 EnMin= -1990.86232112942     IErMin= 2 ErrMin= 9.22D-03
 ErrMax= 9.22D-03  0.00D+00 EMaxC= 1.00D-01 BMatC= 8.81D-02 BMatP= 1.22D+00
 IDIUse=3 WtCom= 9.08D-01 WtEn= 9.22D-02
 Coeff-Com: -0.442D-01 0.104D+01
 Coeff-En:   0.000D+00 0.100D+01
 Coeff:     -0.401D-01 0.104D+01
 Gap=     0.253 Goal=   None    Shift=    0.000
 RMSDP=7.75D-04 MaxDP=7.51D-02 DE=-5.13D-01 OVMax= 9.36D-02

 Cycle   3  Pass 0  IDiag  1:
 RMSU=  7.70D-04    CP:  9.81D-01  1.01D+00
 E= -1991.35763736364     Delta-E=       -0.495316234220 Rises=F Damp=F
 DIIS: error= 7.00D-03 at cycle   3 NSaved=   3.
 NSaved= 3 IEnMin= 3 EnMin= -1991.35763736364     IErMin= 3 ErrMin= 7.00D-03
 ErrMax= 7.00D-03  0.00D+00 EMaxC= 1.00D-01 BMatC= 3.70D-02 BMatP= 8.81D-02
 IDIUse=3 WtCom= 9.30D-01 WtEn= 7.00D-02
 Coeff-Com: -0.712D-01 0.407D+00 0.664D+00
 Coeff-En:   0.000D+00 0.000D+00 0.100D+01
 Coeff:     -0.663D-01 0.379D+00 0.688D+00
 Gap=     0.252 Goal=   None    Shift=    0.000
 RMSDP=4.23D-04 MaxDP=4.04D-02 DE=-4.95D-01 OVMax= 4.10D-02

 Cycle   4  Pass 0  IDiag  1:
 RMSU=  2.88D-04    CP:  9.83D-01  1.09D+00  6.34D-01
 E= -1991.37891682500     Delta-E=       -0.021279461354 Rises=F Damp=F
 DIIS: error= 3.74D-03 at cycle   4 NSaved=   4.
 NSaved= 4 IEnMin= 4 EnMin= -1991.37891682500     IErMin= 4 ErrMin= 3.74D-03
 ErrMax= 3.74D-03  0.00D+00 EMaxC= 1.00D-01 BMatC= 1.07D-02 BMatP= 3.70D-02
 IDIUse=3 WtCom= 9.63D-01 WtEn= 3.74D-02
 Coeff-Com: -0.262D-01 0.863D-01 0.377D+00 0.563D+00
 Coeff-En:   0.000D+00 0.000D+00 0.231D+00 0.769D+00
 Coeff:     -0.252D-01 0.830D-01 0.372D+00 0.570D+00
 Gap=     0.242 Goal=   None    Shift=    0.000
 RMSDP=1.80D-04 MaxDP=1.24D-02 DE=-2.13D-02 OVMax= 2.07D-02

 Cycle   5  Pass 0  IDiag  1:
 RMSU=  8.30D-05    CP:  9.82D-01  1.08D+00  7.49D-01  5.43D-01
 E= -1991.38748448948     Delta-E=       -0.008567664488 Rises=F Damp=F
 DIIS: error= 7.94D-04 at cycle   5 NSaved=   5.
 NSaved= 5 IEnMin= 5 EnMin= -1991.38748448948     IErMin= 5 ErrMin= 7.94D-04
 ErrMax= 7.94D-04  0.00D+00 EMaxC= 1.00D-01 BMatC= 5.77D-04 BMatP= 1.07D-02
 IDIUse=3 WtCom= 9.92D-01 WtEn= 7.94D-03
 Coeff-Com: -0.814D-02 0.194D-01 0.146D+00 0.287D+00 0.556D+00
 Coeff-En:   0.000D+00 0.000D+00 0.000D+00 0.000D+00 0.100D+01
 Coeff:     -0.807D-02 0.193D-01 0.144D+00 0.285D+00 0.560D+00
 Gap=     0.244 Goal=   None    Shift=    0.000
 RMSDP=4.79D-05 MaxDP=3.72D-03 DE=-8.57D-03 OVMax= 5.88D-03

 Cycle   6  Pass 0  IDiag  1:
 RMSU=  2.40D-05    CP:  9.82D-01  1.08D+00  7.52D-01  6.16D-01  5.68D-01
 E= -1991.38797900721     Delta-E=       -0.000494517727 Rises=F Damp=F
 DIIS: error= 1.93D-04 at cycle   6 NSaved=   6.
 NSaved= 6 IEnMin= 6 EnMin= -1991.38797900721     IErMin= 6 ErrMin= 1.93D-04
 ErrMax= 1.93D-04  0.00D+00 EMaxC= 1.00D-01 BMatC= 3.80D-05 BMatP= 5.77D-04
 IDIUse=3 WtCom= 9.98D-01 WtEn= 1.93D-03
 Coeff-Com: -0.120D-02 0.107D-02 0.309D-01 0.767D-01 0.261D+00 0.632D+00
 Coeff-En:   0.000D+00 0.000D+00 0.000D+00 0.000D+00 0.000D+00 0.100D+01
 Coeff:     -0.119D-02 0.107D-02 0.308D-01 0.766D-01 0.260D+00 0.633D+00
 Gap=     0.244 Goal=   None    Shift=    0.000
 RMSDP=1.23D-05 MaxDP=6.75D-04 DE=-4.95D-04 OVMax= 1.92D-03

 Cycle   7  Pass 0  IDiag  1:
 RMSU=  7.88D-06    CP:  9.82D-01  1.08D+00  7.55D-01  6.15D-01  6.41D-01
                    CP:  7.16D-01
 E= -1991.38801659245     Delta-E=       -0.000037585242 Rises=F Damp=F
 DIIS: error= 3.95D-05 at cycle   7 NSaved=   7.
 NSaved= 7 IEnMin= 7 EnMin= -1991.38801659245     IErMin= 7 ErrMin= 3.95D-05
 ErrMax= 3.95D-05  0.00D+00 EMaxC= 1.00D-01 BMatC= 2.92D-06 BMatP= 3.80D-05
 IDIUse=1 WtCom= 1.00D+00 WtEn= 0.00D+00
 Coeff-Com:  0.291D-03-0.145D-02-0.699D-03 0.597D-02 0.626D-01 0.268D+00
 Coeff-Com:  0.665D+00
 Coeff:      0.291D-03-0.145D-02-0.699D-03 0.597D-02 0.626D-01 0.268D+00
 Coeff:      0.665D+00
 Gap=     0.243 Goal=   None    Shift=    0.000
 RMSDP=4.15D-06 MaxDP=2.34D-04 DE=-3.76D-05 OVMax= 3.52D-04

 Initial convergence to 1.0D-05 achieved.  Increase integral accuracy.
 Cycle   8  Pass 1  IDiag  1:
 E= -1991.38809680003     Delta-E=       -0.000080207580 Rises=F Damp=F
 DIIS: error= 1.41D-04 at cycle   1 NSaved=   1.
 NSaved= 1 IEnMin= 1 EnMin= -1991.38809680003     IErMin= 1 ErrMin= 1.41D-04
 ErrMax= 1.41D-04  0.00D+00 EMaxC= 1.00D-01 BMatC= 1.18D-05 BMatP= 1.18D-05
 IDIUse=3 WtCom= 9.99D-01 WtEn= 1.41D-03
 Coeff-Com:  0.100D+01
 Coeff-En:   0.100D+01
 Coeff:      0.100D+01
 Gap=     0.244 Goal=   None    Shift=    0.000
 RMSDP=4.15D-06 MaxDP=2.34D-04 DE=-8.02D-05 OVMax= 5.60D-04

 Cycle   9  Pass 1  IDiag  1:
 RMSU=  6.42D-05    CP:  1.00D+00
 E= -1991.38810762586     Delta-E=       -0.000010825833 Rises=F Damp=F
 DIIS: error= 2.53D-05 at cycle   2 NSaved=   2.
 NSaved= 2 IEnMin= 2 EnMin= -1991.38810762586     IErMin= 2 ErrMin= 2.53D-05
 ErrMax= 2.53D-05  0.00D+00 EMaxC= 1.00D-01 BMatC= 9.08D-07 BMatP= 1.18D-05
 IDIUse=1 WtCom= 1.00D+00 WtEn= 0.00D+00
 Coeff-Com:  0.857D-01 0.914D+00
 Coeff:      0.857D-01 0.914D+00
 Gap=     0.243 Goal=   None    Shift=    0.000
 RMSDP=3.98D-06 MaxDP=2.57D-04 DE=-1.08D-05 OVMax= 4.51D-04

 Cycle  10  Pass 1  IDiag  1:
 RMSU=  3.55D-06    CP:  1.00D+00  1.03D+00
 E= -1991.38810714001     Delta-E=        0.000000485859 Rises=F Damp=F
 DIIS: error= 3.80D-05 at cycle   3 NSaved=   3.
 NSaved= 3 IEnMin= 2 EnMin= -1991.38810762586     IErMin= 2 ErrMin= 2.53D-05
 ErrMax= 3.80D-05  0.00D+00 EMaxC= 1.00D-01 BMatC= 1.47D-06 BMatP= 9.08D-07
 IDIUse=1 WtCom= 1.00D+00 WtEn= 0.00D+00
 Coeff-Com: -0.161D-01 0.566D+00 0.450D+00
 Coeff:     -0.161D-01 0.566D+00 0.450D+00
 Gap=     0.243 Goal=   None    Shift=    0.000
 RMSDP=1.98D-06 MaxDP=1.58D-04 DE= 4.86D-07 OVMax= 3.23D-04

 Cycle  11  Pass 1  IDiag  1:
 RMSU=  6.15D-07    CP:  1.00D+00  1.03D+00  4.79D-01
 E= -1991.38810841833     Delta-E=       -0.000001278327 Rises=F Damp=F
 DIIS: error= 3.47D-06 at cycle   4 NSaved=   4.
 NSaved= 4 IEnMin= 4 EnMin= -1991.38810841833     IErMin= 4 ErrMin= 3.47D-06
 ErrMax= 3.47D-06  0.00D+00 EMaxC= 1.00D-01 BMatC= 1.07D-08 BMatP= 9.08D-07
 IDIUse=1 WtCom= 1.00D+00 WtEn= 0.00D+00
 Coeff-Com: -0.872D-02 0.249D+00 0.214D+00 0.546D+00
 Coeff:     -0.872D-02 0.249D+00 0.214D+00 0.546D+00
 Gap=     0.244 Goal=   None    Shift=    0.000
 RMSDP=2.12D-07 MaxDP=1.11D-05 DE=-1.28D-06 OVMax= 1.95D-05

 Cycle  12  Pass 1  IDiag  1:
 RMSU=  1.92D-07    CP:  1.00D+00  1.03D+00  4.95D-01  8.92D-01
 E= -1991.38810842796     Delta-E=       -0.000000009626 Rises=F Damp=F
 DIIS: error= 1.26D-06 at cycle   5 NSaved=   5.
 NSaved= 5 IEnMin= 5 EnMin= -1991.38810842796     IErMin= 5 ErrMin= 1.26D-06
 ErrMax= 1.26D-06  0.00D+00 EMaxC= 1.00D-01 BMatC= 9.20D-10 BMatP= 1.07D-08
 IDIUse=1 WtCom= 1.00D+00 WtEn= 0.00D+00
 Coeff-Com: -0.408D-03-0.732D-02 0.568D-02 0.191D+00 0.811D+00
 Coeff:     -0.408D-03-0.732D-02 0.568D-02 0.191D+00 0.811D+00
 Gap=     0.244 Goal=   None    Shift=    0.000
 RMSDP=9.21D-08 MaxDP=3.98D-06 DE=-9.63D-09 OVMax= 1.55D-05

 Cycle  13  Pass 1  IDiag  1:
 RMSU=  7.02D-08    CP:  1.00D+00  1.03D+00  5.00D-01  9.79D-01  9.05D-01
 E= -1991.38810842885     Delta-E=       -0.000000000890 Rises=F Damp=F
 DIIS: error= 5.08D-07 at cycle   6 NSaved=   6.
 NSaved= 6 IEnMin= 6 EnMin= -1991.38810842885     IErMin= 6 ErrMin= 5.08D-07
 ErrMax= 5.08D-07  0.00D+00 EMaxC= 1.00D-01 BMatC= 3.13D-10 BMatP= 9.20D-10
 IDIUse=1 WtCom= 1.00D+00 WtEn= 0.00D+00
 Coeff-Com:  0.106D-02-0.404D-01-0.264D-01 0.199D-01 0.452D+00 0.594D+00
 Coeff:      0.106D-02-0.404D-01-0.264D-01 0.199D-01 0.452D+00 0.594D+00
 Gap=     0.244 Goal=   None    Shift=    0.000
 RMSDP=3.66D-08 MaxDP=3.16D-06 DE=-8.90D-10 OVMax= 5.13D-06

 Cycle  14  Pass 1  IDiag  1:
 RMSU=  2.61D-08    CP:  1.00D+00  1.03D+00  5.02D-01  9.94D-01  9.96D-01
                    CP:  8.19D-01
 E= -1991.38810842919     Delta-E=       -0.000000000339 Rises=F Damp=F
 DIIS: error= 2.27D-07 at cycle   7 NSaved=   7.
 NSaved= 7 IEnMin= 7 EnMin= -1991.38810842919     IErMin= 7 ErrMin= 2.27D-07
 ErrMax= 2.27D-07  0.00D+00 EMaxC= 1.00D-01 BMatC= 2.04D-11 BMatP= 3.13D-10
 IDIUse=1 WtCom= 1.00D+00 WtEn= 0.00D+00
 Coeff-Com:  0.475D-03-0.159D-01-0.106D-01-0.144D-01 0.102D+00 0.235D+00
 Coeff-Com:  0.704D+00
 Coeff:      0.475D-03-0.159D-01-0.106D-01-0.144D-01 0.102D+00 0.235D+00
 Coeff:      0.704D+00
 Gap=     0.244 Goal=   None    Shift=    0.000
 RMSDP=1.18D-08 MaxDP=8.29D-07 DE=-3.39D-10 OVMax= 1.69D-06

 Cycle  15  Pass 1  IDiag  1:
 RMSU=  8.78D-09    CP:  1.00D+00  1.03D+00  5.03D-01  9.98D-01  1.01D+00
                    CP:  9.03D-01  1.07D+00
 E= -1991.38810842927     Delta-E=       -0.000000000086 Rises=F Damp=F
 DIIS: error= 5.56D-08 at cycle   8 NSaved=   8.
 NSaved= 8 IEnMin= 8 EnMin= -1991.38810842927     IErMin= 8 ErrMin= 5.56D-08
 ErrMax= 5.56D-08  0.00D+00 EMaxC= 1.00D-01 BMatC= 3.17D-12 BMatP= 2.04D-11
 IDIUse=1 WtCom= 1.00D+00 WtEn= 0.00D+00
 Coeff-Com: -0.401D-04 0.235D-02 0.189D-02-0.110D-01-0.535D-01-0.283D-01
 Coeff-Com:  0.282D+00 0.806D+00
 Coeff:     -0.401D-04 0.235D-02 0.189D-02-0.110D-01-0.535D-01-0.283D-01
 Coeff:      0.282D+00 0.806D+00
 Gap=     0.244 Goal=   None    Shift=    0.000
 RMSDP=5.22D-09 MaxDP=4.06D-07 DE=-8.64D-11 OVMax= 7.74D-07

 SCF Done:  E(RM062X) =  -1991.38810843     A.U. after   15 cycles
            NFock= 15  Conv=0.52D-08     -V/T= 2.0075
 KE= 1.976476403377D+03 PE=-1.443928069407D+04 EE= 5.578053736107D+03
 Leave Link  502 at Thu Feb  7 23:43:53 2019, MaxMem=   104857600 cpu:            3620.9 elap:             151.2
 (Enter /home/xinyan/g16/l601.exe)
 Copying SCF densities to generalized density rwf, IOpCl= 0 IROHF=0.

 **********************************************************************

            Population analysis using the SCF density.

 **********************************************************************

 Orbital symmetries:
       Occupied  (A) (A) (A) (A) (A) (A) (A) (A) (A) (A) (A) (A)
                 (A) (A) (A) (A) (A) (A) (A) (A) (A) (A) (A) (A)
                 (A) (A) (A) (A) (A) (A) (A) (A) (A) (A) (A) (A)
                 (A) (A) (A) (A) (A) (A) (A) (A) (A) (A) (A) (A)
                 (A) (A) (A) (A) (A) (A) (A) (A) (A) (A) (A) (A)
                 (A) (A) (A) (A) (A) (A) (A) (A) (A) (A) (A) (A)
                 (A) (A) (A) (A) (A) (A) (A) (A) (A) (A) (A) (A)
                 (A) (A) (A) (A) (A) (A) (A) (A) (A) (A) (A) (A)
                 (A) (A) (A) (A) (A) (A) (A) (A) (A) (A) (A) (A)
                 (A) (A) (A) (A) (A) (A) (A) (A) (A) (A) (A) (A)
                 (A) (A) (A) (A) (A) (A) (A) (A) (A) (A) (A) (A)
                 (A) (A) (A) (A) (A) (A) (A) (A)
       Virtual   (A) (A) (A) (A) (A) (A) (A) (A) (A) (A) (A) (A)
                 (A) (A) (A) (A) (A) (A) (A) (A) (A) (A) (A) (A)
                 (A) (A) (A) (A) (A) (A) (A) (A) (A) (A) (A) (A)
                 (A) (A) (A) (A) (A) (A) (A) (A) (A) (A) (A) (A)
                 (A) (A) (A) (A) (A) (A) (A) (A) (A) (A) (A) (A)
                 (A) (A) (A) (A) (A) (A) (A) (A) (A) (A) (A) (A)
                 (A) (A) (A) (A) (A) (A) (A) (A) (A) (A) (A) (A)
                 (A) (A) (A) (A) (A) (A) (A) (A) (A) (A) (A) (A)
                 (A) (A) (A) (A) (A) (A) (A) (A) (A) (A) (A) (A)
                 (A) (A) (A) (A) (A) (A) (A) (A) (A) (A) (A) (A)
                 (A) (A) (A) (A) (A) (A) (A) (A) (A) (A) (A) (A)
                 (A) (A) (A) (A) (A) (A) (A) (A) (A) (A) (A) (A)
                 (A) (A) (A) (A) (A) (A) (A) (A) (A) (A) (A) (A)
                 (A) (A) (A) (A) (A) (A) (A) (A) (A) (A) (A) (A)
                 (A) (A) (A) (A) (A) (A) (A) (A) (A) (A) (A) (A)
                 (A) (A) (A) (A) (A) (A) (A) (A) (A) (A) (A) (A)
                 (A) (A) (A) (A) (A) (A) (A) (A) (A) (A) (A) (A)
                 (A) (A) (A) (A) (A) (A) (A) (A) (A) (A) (A) (A)
                 (A) (A) (A) (A) (A) (A) (A) (A) (A) (A) (A) (A)
                 (A) (A) (A) (A) (A) (A) (A) (A) (A) (A) (A) (A)
                 (A) (A) (A) (A) (A) (A) (A) (A) (A) (A) (A) (A)
                 (A) (A) (A) (A) (A) (A) (A) (A) (A) (A) (A) (A)
                 (A) (A) (A) (A) (A) (A) (A) (A) (A) (A) (A) (A)
                 (A) (A) (A) (A) (A) (A) (A) (A) (A) (A) (A) (A)
                 (A) (A) (A) (A) (A) (A) (A) (A) (A) (A) (A) (A)
                 (A) (A) (A) (A) (A) (A) (A) (A) (A) (A) (A) (A)
                 (A) (A) (A) (A) (A) (A) (A) (A) (A) (A) (A) (A)
                 (A) (A) (A) (A) (A) (A) (A) (A) (A) (A) (A) (A)
                 (A) (A) (A) (A) (A) (A) (A) (A) (A) (A) (A) (A)
                 (A) (A) (A) (A) (A) (A) (A) (A) (A) (A) (A) (A)
                 (A) (A) (A) (A) (A) (A) (A) (A) (A) (A) (A) (A)
                 (A) (A) (A) (A) (A) (A) (A) (A) (A) (A) (A) (A)
                 (A) (A) (A) (A) (A) (A) (A) (A) (A) (A) (A) (A)
                 (A) (A) (A) (A) (A) (A) (A) (A) (A) (A) (A) (A)
                 (A) (A) (A) (A) (A) (A) (A) (A) (A) (A) (A) (A)
                 (A) (A) (A) (A) (A) (A) (A) (A) (A) (A) (A) (A)
                 (A) (A) (A) (A) (A) (A) (A) (A) (A) (A) (A) (A)
                 (A) (A) (A) (A) (A) (A) (A) (A) (A) (A) (A) (A)
                 (A) (A) (A) (A) (A) (A) (A) (A) (A) (A) (A) (A)
                 (A) (A) (A) (A) (A) (A) (A) (A) (A) (A) (A) (A)
                 (A) (A) (A) (A) (A) (A)
 The electronic state is 1-A.
 Alpha  occ. eigenvalues --  -90.10326 -19.63393 -19.60100 -19.59159 -19.58526
 Alpha  occ. eigenvalues --  -19.58325 -14.84792 -14.80483 -14.69351 -10.65509
 Alpha  occ. eigenvalues --  -10.63218 -10.62406 -10.61502 -10.59125 -10.59078
 Alpha  occ. eigenvalues --  -10.59026 -10.57822 -10.57416 -10.56798 -10.56662
 Alpha  occ. eigenvalues --  -10.56014 -10.55737 -10.55541 -10.54987 -10.54927
 Alpha  occ. eigenvalues --  -10.54877 -10.54603 -10.54563 -10.54503 -10.53814
 Alpha  occ. eigenvalues --  -10.53631 -10.53567 -10.53226 -10.53170 -10.52670
 Alpha  occ. eigenvalues --  -10.52618  -8.41289  -6.33527  -6.33434  -6.33354
 Alpha  occ. eigenvalues --   -1.19143  -1.17843  -1.12929  -1.10260  -1.09870
 Alpha  occ. eigenvalues --   -1.09124  -1.06109  -0.97528  -0.95280  -0.94780
 Alpha  occ. eigenvalues --   -0.92184  -0.89842  -0.88571  -0.88138  -0.85031
 Alpha  occ. eigenvalues --   -0.84926  -0.83658  -0.83507  -0.83300  -0.80153
 Alpha  occ. eigenvalues --   -0.79206  -0.76338  -0.75643  -0.74684  -0.70935
 Alpha  occ. eigenvalues --   -0.70202  -0.69146  -0.68702  -0.68350  -0.68030
 Alpha  occ. eigenvalues --   -0.65857  -0.64730  -0.63931  -0.63436  -0.61605
 Alpha  occ. eigenvalues --   -0.60259  -0.59380  -0.59016  -0.58349  -0.56161
 Alpha  occ. eigenvalues --   -0.55464  -0.55182  -0.55081  -0.54149  -0.53722
 Alpha  occ. eigenvalues --   -0.53443  -0.53064  -0.52467  -0.51943  -0.51701
 Alpha  occ. eigenvalues --   -0.51115  -0.50979  -0.50611  -0.50112  -0.49831
 Alpha  occ. eigenvalues --   -0.49588  -0.49526  -0.48810  -0.48337  -0.47992
 Alpha  occ. eigenvalues --   -0.47806  -0.47179  -0.47006  -0.46980  -0.45908
 Alpha  occ. eigenvalues --   -0.45749  -0.45231  -0.43944  -0.43654  -0.43431
 Alpha  occ. eigenvalues --   -0.42786  -0.42567  -0.42214  -0.41985  -0.41885
 Alpha  occ. eigenvalues --   -0.41161  -0.40877  -0.40548  -0.39899  -0.39550
 Alpha  occ. eigenvalues --   -0.39360  -0.39235  -0.38847  -0.38388  -0.37928
 Alpha  occ. eigenvalues --   -0.37311  -0.36214  -0.35834  -0.35342  -0.35128
 Alpha  occ. eigenvalues --   -0.34357  -0.33080  -0.32046  -0.31684  -0.31496
 Alpha  occ. eigenvalues --   -0.29876  -0.28875  -0.28317  -0.27419  -0.25378
 Alpha virt. eigenvalues --   -0.01027   0.00660   0.03244   0.03772   0.09031
 Alpha virt. eigenvalues --    0.10165   0.10904   0.11814   0.12969   0.13533
 Alpha virt. eigenvalues --    0.13870   0.14276   0.15032   0.15482   0.15797
 Alpha virt. eigenvalues --    0.16207   0.16468   0.17231   0.17510   0.17971
 Alpha virt. eigenvalues --    0.18314   0.18366   0.18581   0.18911   0.19140
 Alpha virt. eigenvalues --    0.19432   0.19618   0.20066   0.20353   0.20432
 Alpha virt. eigenvalues --    0.20866   0.20978   0.21225   0.21627   0.21893
 Alpha virt. eigenvalues --    0.22255   0.22584   0.22795   0.22830   0.23220
 Alpha virt. eigenvalues --    0.23721   0.23932   0.24336   0.24394   0.24586
 Alpha virt. eigenvalues --    0.24902   0.25275   0.25355   0.25902   0.26407
 Alpha virt. eigenvalues --    0.27044   0.27413   0.27628   0.28134   0.28262
 Alpha virt. eigenvalues --    0.28674   0.29403   0.29553   0.30385   0.30554
 Alpha virt. eigenvalues --    0.30802   0.31126   0.31625   0.32079   0.32570
 Alpha virt. eigenvalues --    0.32900   0.33521   0.34629   0.35271   0.35465
 Alpha virt. eigenvalues --    0.35847   0.36625   0.37222   0.38337   0.38515
 Alpha virt. eigenvalues --    0.39433   0.39804   0.41276   0.41776   0.42929
 Alpha virt. eigenvalues --    0.44945   0.47220   0.47682   0.48620   0.50152
 Alpha virt. eigenvalues --    0.51178   0.52479   0.53513   0.53780   0.55318
 Alpha virt. eigenvalues --    0.55598   0.56189   0.56928   0.57097   0.57830
 Alpha virt. eigenvalues --    0.57998   0.58724   0.58839   0.59115   0.59325
 Alpha virt. eigenvalues --    0.59619   0.60370   0.60865   0.61034   0.61239
 Alpha virt. eigenvalues --    0.61468   0.61653   0.61845   0.62486   0.62713
 Alpha virt. eigenvalues --    0.63549   0.63844   0.64423   0.64758   0.65370
 Alpha virt. eigenvalues --    0.65944   0.66230   0.66877   0.67390   0.67556
 Alpha virt. eigenvalues --    0.67706   0.68434   0.68936   0.69446   0.70137
 Alpha virt. eigenvalues --    0.70686   0.71194   0.71716   0.71873   0.72736
 Alpha virt. eigenvalues --    0.73041   0.73727   0.73961   0.74594   0.75287
 Alpha virt. eigenvalues --    0.75520   0.75979   0.76235   0.76845   0.77462
 Alpha virt. eigenvalues --    0.78184   0.78661   0.79259   0.79970   0.80860
 Alpha virt. eigenvalues --    0.81298   0.81453   0.82575   0.83106   0.83649
 Alpha virt. eigenvalues --    0.84528   0.85122   0.85390   0.85507   0.86465
 Alpha virt. eigenvalues --    0.86961   0.87632   0.88114   0.88514   0.88691
 Alpha virt. eigenvalues --    0.89409   0.89714   0.90378   0.90552   0.90822
 Alpha virt. eigenvalues --    0.91242   0.91551   0.92252   0.92548   0.92825
 Alpha virt. eigenvalues --    0.93012   0.93466   0.93912   0.94135   0.94671
 Alpha virt. eigenvalues --    0.95274   0.95552   0.96344   0.96453   0.96626
 Alpha virt. eigenvalues --    0.96720   0.97044   0.97306   0.97765   0.98056
 Alpha virt. eigenvalues --    0.98524   0.99042   0.99190   0.99469   0.99664
 Alpha virt. eigenvalues --    1.00223   1.00318   1.01510   1.01734   1.02091
 Alpha virt. eigenvalues --    1.02437   1.03066   1.03607   1.04106   1.04772
 Alpha virt. eigenvalues --    1.05090   1.05651   1.05749   1.06350   1.06792
 Alpha virt. eigenvalues --    1.07748   1.08183   1.08765   1.10202   1.11170
 Alpha virt. eigenvalues --    1.11769   1.12499   1.12758   1.13584   1.14275
 Alpha virt. eigenvalues --    1.15068   1.15607   1.16586   1.17539   1.18605
 Alpha virt. eigenvalues --    1.18829   1.19341   1.19481   1.20951   1.21590
 Alpha virt. eigenvalues --    1.22361   1.23072   1.24191   1.24742   1.25434
 Alpha virt. eigenvalues --    1.26177   1.26862   1.27577   1.28101   1.29152
 Alpha virt. eigenvalues --    1.29886   1.30300   1.31253   1.31951   1.33122
 Alpha virt. eigenvalues --    1.33715   1.34681   1.35209   1.36300   1.36366
 Alpha virt. eigenvalues --    1.37651   1.39081   1.39488   1.39938   1.40743
 Alpha virt. eigenvalues --    1.41509   1.42232   1.43668   1.44027   1.44581
 Alpha virt. eigenvalues --    1.45313   1.46434   1.47964   1.48547   1.49322
 Alpha virt. eigenvalues --    1.49782   1.50171   1.51174   1.51635   1.52256
 Alpha virt. eigenvalues --    1.52479   1.53075   1.54096   1.55043   1.55372
 Alpha virt. eigenvalues --    1.55866   1.56528   1.57548   1.58440   1.58672
 Alpha virt. eigenvalues --    1.60154   1.60902   1.61833   1.62259   1.63706
 Alpha virt. eigenvalues --    1.67107   1.67754   1.68761   1.70287   1.71391
 Alpha virt. eigenvalues --    1.72656   1.73848   1.75536   1.75793   1.77033
 Alpha virt. eigenvalues --    1.78077   1.78655   1.79674   1.79993   1.81355
 Alpha virt. eigenvalues --    1.81732   1.82993   1.83088   1.84521   1.84674
 Alpha virt. eigenvalues --    1.85989   1.86597   1.86783   1.87368   1.88379
 Alpha virt. eigenvalues --    1.88744   1.89551   1.90376   1.91189   1.91501
 Alpha virt. eigenvalues --    1.92063   1.92302   1.92651   1.93429   1.93474
 Alpha virt. eigenvalues --    1.94148   1.94467   1.95087   1.95636   1.96365
 Alpha virt. eigenvalues --    1.97255   1.97701   1.98628   1.98898   1.99831
 Alpha virt. eigenvalues --    2.00329   2.01163   2.01605   2.02658   2.03373
 Alpha virt. eigenvalues --    2.03533   2.03845   2.04149   2.04667   2.05519
 Alpha virt. eigenvalues --    2.06112   2.06702   2.06994   2.07269   2.08118
 Alpha virt. eigenvalues --    2.08523   2.09148   2.09672   2.10475   2.11222
 Alpha virt. eigenvalues --    2.11796   2.12400   2.13039   2.13736   2.14225
 Alpha virt. eigenvalues --    2.15038   2.15994   2.16125   2.16770   2.17515
 Alpha virt. eigenvalues --    2.18619   2.19137   2.19809   2.20777   2.21038
 Alpha virt. eigenvalues --    2.21805   2.22304   2.22945   2.24095   2.24357
 Alpha virt. eigenvalues --    2.24934   2.25294   2.25811   2.27208   2.28462
 Alpha virt. eigenvalues --    2.29000   2.29465   2.30557   2.31009   2.31960
 Alpha virt. eigenvalues --    2.32235   2.32748   2.33101   2.34891   2.35293
 Alpha virt. eigenvalues --    2.35960   2.36590   2.36980   2.37989   2.38353
 Alpha virt. eigenvalues --    2.39461   2.39742   2.40036   2.41177   2.41971
 Alpha virt. eigenvalues --    2.42690   2.43531   2.44324   2.45072   2.46556
 Alpha virt. eigenvalues --    2.49066   2.50302   2.51585   2.51865   2.52091
 Alpha virt. eigenvalues --    2.53249   2.54159   2.55666   2.56268   2.56505
 Alpha virt. eigenvalues --    2.59521   2.60334   2.61461   2.62268   2.63432
 Alpha virt. eigenvalues --    2.63551   2.65433   2.66017   2.66776   2.67998
 Alpha virt. eigenvalues --    2.68463   2.68675   2.69824   2.71119   2.71336
 Alpha virt. eigenvalues --    2.72774   2.73003   2.74212   2.76482   2.76803
 Alpha virt. eigenvalues --    2.77512   2.78183   2.79637   2.79710   2.80382
 Alpha virt. eigenvalues --    2.83247   2.83979   2.86302   2.87312   2.88987
 Alpha virt. eigenvalues --    2.93018   2.93363   2.94119   2.95402   2.96432
 Alpha virt. eigenvalues --    2.99545   2.99831   3.01225   3.02551   3.10332
 Alpha virt. eigenvalues --    3.17692   3.20441   3.23670   3.42556   3.43142
 Alpha virt. eigenvalues --    3.96673   4.02351   4.07427   4.10881   4.12181
 Alpha virt. eigenvalues --    4.14253   4.15834   4.17207   4.18179   4.19886
 Alpha virt. eigenvalues --    4.22185   4.24456   4.24851   4.26385   4.26965
 Alpha virt. eigenvalues --    4.30811   4.31308   4.32856   4.34743   4.36147
 Alpha virt. eigenvalues --    4.37027   4.38226   4.39964   4.41310   4.44425
 Alpha virt. eigenvalues --    4.46894   4.49358   4.52168   4.58581   4.59107
 Alpha virt. eigenvalues --    4.62135   4.64272   4.65869   4.75129   4.75620
 Alpha virt. eigenvalues --    4.78294
          Condensed to atoms (all electrons):
 Mulliken charges:
               1
     1  C   -0.303909
     2  C   -0.304182
     3  C   -0.309609
     4  C   -0.073194
     5  C    0.063427
     6  C   -0.305038
     7  H    0.166243
     8  H    0.160986
     9  H    0.159127
    10  H    0.145942
    11  H    0.156742
    12  H    0.212331
    13  H    0.141319
    14  H    0.179330
    15  H    0.149870
    16  H    0.150269
    17  N   -0.424123
    18  C    0.099399
    19  C    0.084123
    20  C   -0.227526
    21  H    0.204808
    22  C   -0.226565
    23  H    0.263871
    24  C    0.427901
    25  H    0.188016
    26  H    0.207269
    27  N   -0.528379
    28  C   -0.158021
    29  H    0.178349
    30  H    0.199047
    31  C   -0.146691
    32  H    0.169580
    33  H    0.195225
    34  N   -0.757027
    35  S    1.249386
    36  O   -0.645857
    37  O   -0.670171
    38  C    0.048706
    39  C   -0.176727
    40  C   -0.187420
    41  C   -0.169739
    42  C   -0.161689
    43  C   -0.198504
    44  H    0.204356
    45  H    0.139144
    46  H    0.156487
    47  H    0.161944
    48  H    0.157341
    49  O   -0.713869
    50  H    0.482803
    51  C    0.651251
    52  O   -0.522278
    53  O   -0.646266
    54  H    0.485574
    55  C   -0.369227
    56  H    0.201708
    57  H    0.164553
    58  C   -0.065227
    59  H    0.127781
    60  H    0.154033
    61  C   -0.658203
    62  H    0.221545
    63  H    0.187496
    64  H    0.207401
    65  C   -0.287850
    66  H    0.144398
    67  H    0.164032
    68  C   -0.480333
    69  H    0.158796
    70  H    0.158426
    71  H    0.150889
    72  C   -0.337153
    73  H    0.184315
    74  H    0.169976
    75  C   -0.335851
    76  H    0.181978
    77  H    0.173133
 Sum of Mulliken charges =  -0.00000
 Mulliken charges with hydrogens summed into heavy atoms:
               1
     1  C   -0.001225
     2  C    0.015930
     3  C    0.006903
     4  C    0.139137
     5  C    0.204746
     6  C    0.024162
    17  N   -0.424123
    18  C    0.304207
    19  C    0.347994
    20  C   -0.039510
    22  C   -0.019297
    24  C    0.427901
    27  N   -0.528379
    28  C    0.219375
    31  C    0.218114
    34  N   -0.757027
    35  S    1.249386
    36  O   -0.645857
    37  O   -0.670171
    38  C    0.048706
    39  C    0.027629
    40  C   -0.048277
    41  C   -0.013252
    42  C    0.000255
    43  C   -0.041163
    49  O   -0.231066
    51  C    0.651251
    52  O   -0.522278
    53  O   -0.160691
    55  C   -0.002967
    58  C    0.216588
    61  C   -0.041761
    65  C    0.020581
    68  C   -0.012222
    72  C    0.017139
    75  C    0.019260
 Electronic spatial extent (au):  <R**2>=          15035.5574
 Charge=             -0.0000 electrons
 Dipole moment (field-independent basis, Debye):
    X=              1.5433    Y=             -0.3245    Z=             -6.5787  Tot=              6.7651
 Quadrupole moment (field-independent basis, Debye-Ang):
   XX=           -198.6075   YY=           -222.7444   ZZ=           -222.2256
   XY=            -11.8214   XZ=             -0.7204   YZ=             12.5162
 Traceless Quadrupole moment (field-independent basis, Debye-Ang):
   XX=             15.9183   YY=             -8.2186   ZZ=             -7.6998
   XY=            -11.8214   XZ=             -0.7204   YZ=             12.5162
 Octapole moment (field-independent basis, Debye-Ang**2):
  XXX=             73.5710  YYY=            -29.4624  ZZZ=             -0.0320  XYY=             21.0624
  XXY=            -12.4114  XXZ=            -25.7033  XZZ=             -6.6318  YZZ=             19.1738
  YYZ=              9.8853  XYZ=            -16.5321
 Hexadecapole moment (field-independent basis, Debye-Ang**3):
 XXXX=         -10029.6087 YYYY=          -5797.7184 ZZZZ=          -3818.1520 XXXY=           -172.0813
 XXXZ=            -10.9356 YYYX=            -97.7732 YYYZ=             82.6959 ZZZX=            -76.3749
 ZZZY=             15.2506 XXYY=          -2638.6079 XXZZ=          -2373.0558 YYZZ=          -1730.1176
 XXYZ=             47.6924 YYXZ=             58.8075 ZZXY=            -45.3345
 N-N= 4.893362446160D+03 E-N=-1.443928065289D+04  KE= 1.976476403377D+03
 No NMR shielding tensors so no spin-rotation constants.
 Leave Link  601 at Thu Feb  7 23:43:55 2019, MaxMem=   104857600 cpu:              44.0 elap:               2.0
 (Enter /home/xinyan/g16/l701.exe)
 ... and contract with generalized density number  0.
 Compute integral first derivatives.
 R6Disp: Adding Grimme-D3 dispersion energy 1st derivatives to the gradient.
 Leave Link  701 at Thu Feb  7 23:43:56 2019, MaxMem=   104857600 cpu:              21.5 elap:               1.0
 (Enter /home/xinyan/g16/l702.exe)
 L702 exits ... SP integral derivatives will be done elsewhere.
 Leave Link  702 at Thu Feb  7 23:43:56 2019, MaxMem=   104857600 cpu:               1.4 elap:               0.1
 (Enter /home/xinyan/g16/l703.exe)
 Integral derivatives from FoFJK, PRISM(SPDF).
 Compute integral first derivatives, UseDBF=F ICtDFT=           0.
 Calling FoFJK, ICntrl=      2127 FMM=T ISym2X=0 I1Cent= 0 IOpClX= 0 NMat=1 NMatS=1 NMatT=0.
 FoFJK:  IHMeth= 1 ICntrl=    2127 DoSepK=F KAlg= 0 I1Cent=           0 FoldK=F
 IRaf=         0 NMat=       1 IRICut=       1 DoRegI=T DoRafI=F ISym2E= 0 IDoP0=0 IntGTp=1.
 FoFCou: FMM=T IPFlag=           0 FMFlag=      100000 FMFlg1=        2001
         NFxFlg=           0 DoJE=F BraDBF=F KetDBF=F FulRan=T
         wScrn=  0.000000 ICntrl=      2127 IOpCl=  0 I1Cent=           0 NGrid=           0
         NMat0=    1 NMatS0=      1 NMatT0=    0 NMatD0=    1 NMtDS0=    0 NMtDT0=    0
 Symmetry not used in FoFCou.
 FMM levels:  10  Number of levels for PrismC:   9
 Leave Link  703 at Thu Feb  7 23:44:28 2019, MaxMem=   104857600 cpu:             761.2 elap:              31.8
 (Enter /home/xinyan/g16/l716.exe)
 Dipole        = 6.07194985D-01-1.27651837D-01-2.58825967D+00
 ***** Axes restored to original set *****
 -------------------------------------------------------------------
 Center     Atomic                   Forces (Hartrees/Bohr)
 Number     Number              X              Y              Z
 -------------------------------------------------------------------
      1        6           0.000008973   -0.000102693   -0.000030954
      2        6           0.000114638   -0.000024049    0.000140222
      3        6           0.000061045    0.000003021    0.000025752
      4        6           0.000074151    0.000176164    0.000187424
      5        6          -0.000015074    0.000161808   -0.000120222
      6        6           0.000047357    0.000104687    0.000192376
      7        1           0.000059441    0.000083256    0.000041513
      8        1           0.000073835   -0.000018952    0.000075390
      9        1           0.000016144    0.000004466    0.000115450
     10        1          -0.000066661    0.000042482    0.000119411
     11        1          -0.000005669   -0.000062792    0.000148703
     12        1           0.000099108   -0.000014887    0.000185354
     13        1          -0.000040595   -0.000126234    0.000201645
     14        1           0.000072244   -0.000048878    0.000143480
     15        1           0.000032837    0.000028421    0.000112749
     16        1          -0.000011764    0.000097900    0.000070247
     17        7           0.000039158    0.000039761    0.000063562
     18        6           0.000030913    0.000033050    0.000001550
     19        6           0.000085308    0.000053037    0.000008224
     20        6           0.000032971    0.000018016   -0.000007865
     21        1           0.000061644    0.000110789    0.000079316
     22        6          -0.000006574   -0.000041899   -0.000004881
     23        1           0.000045181    0.000045065    0.000023209
     24        6           0.000091808   -0.000050821   -0.000056941
     25        1           0.000036664    0.000027299    0.000002500
     26        1           0.000033804   -0.000046629   -0.000062723
     27        7           0.000050982   -0.000053972   -0.000071030
     28        6           0.000045179   -0.000145686   -0.000119269
     29        1           0.000031433   -0.000132827   -0.000163653
     30        1           0.000111435   -0.000162057   -0.000100373
     31        6           0.000062272   -0.000055257   -0.000096185
     32        1           0.000003476   -0.000054418   -0.000093818
     33        1           0.000055775   -0.000030015   -0.000013468
     34        7           0.000214276    0.000179396    0.000080699
     35       16          -0.000074335   -0.000024010    0.000001603
     36        8          -0.000009667    0.000081190   -0.000138270
     37        8           0.000122656    0.000044359    0.000033042
     38        6          -0.000226337    0.000155101   -0.000038917
     39        6          -0.000106115    0.000150662   -0.000116544
     40        6           0.000108229    0.000004935    0.000036718
     41        6           0.000015937   -0.000021618   -0.000191219
     42        6          -0.000058540   -0.000003104   -0.000292781
     43        6          -0.000275090    0.000114820   -0.000252347
     44        1          -0.000098633    0.000149275    0.000108803
     45        1           0.000131496   -0.000009281    0.000033413
     46        1           0.000136762   -0.000110491   -0.000239398
     47        1          -0.000074649   -0.000013973   -0.000427679
     48        1          -0.000313056    0.000133739   -0.000335137
     49        8           0.000407824    0.000487099    0.000031423
     50        1          -0.000134958   -0.000134745   -0.000120756
     51        6          -0.000238659    0.000208832    0.000195196
     52        8           0.000020070   -0.000096407   -0.000037640
     53        8          -0.000079413    0.000019998    0.000219065
     54        1          -0.000021952    0.000120029    0.000063194
     55        6           0.000204565   -0.000249169   -0.000029143
     56        1           0.000253494   -0.000126726    0.000182289
     57        1           0.000287653   -0.000145785   -0.000056527
     58        6          -0.000389133    0.000450537   -0.000147266
     59        1          -0.000552196   -0.000206167   -0.000039867
     60        1          -0.000683663    0.000349576    0.000142661
     61        6          -0.000057327   -0.000055043    0.000073507
     62        1          -0.000143193   -0.000010723    0.000159105
     63        1          -0.000110402   -0.000139690    0.000091387
     64        1          -0.000051398   -0.000129334    0.000025560
     65        6           0.000066699   -0.000033963    0.000109304
     66        1           0.000018293    0.000031745    0.000028477
     67        1          -0.000000387   -0.000030673    0.000191395
     68        6           0.000010911    0.000006425    0.000110757
     69        1          -0.000090407    0.000069689    0.000166438
     70        1           0.000024899   -0.000080862    0.000198598
     71        1           0.000032757    0.000026738    0.000032236
     72        6           0.000058879   -0.000167310   -0.000176457
     73        1           0.000095286   -0.000229670   -0.000188496
     74        1          -0.000004819   -0.000163179   -0.000216461
     75        6           0.000052700   -0.000154972   -0.000077432
     76        1           0.000131248   -0.000175289   -0.000063009
     77        1           0.000068253   -0.000129116   -0.000126221
 -------------------------------------------------------------------
 Cartesian Forces:  Max     0.000683663 RMS     0.000144070
 Z-matrix is all fixed cartesians, so copy forces.
 Leave Link  716 at Thu Feb  7 23:44:28 2019, MaxMem=   104857600 cpu:               2.4 elap:               0.1
 (Enter /home/xinyan/g16/l103.exe)

 GradGradGradGradGradGradGradGradGradGradGradGradGradGradGradGradGradGrad
 Berny optimization.
 Search for a local minimum.
 Step number   1 out of a maximum of    2
 All quantities printed in internal units (Hartrees-Bohrs-Radians)
 Second derivative matrix not updated -- first step.
 ITU=  0
     Eigenvalues ---   -0.00000  -0.00000   0.00000   0.00000   0.00000
     Eigenvalues ---    0.00000   0.00000   0.00000   0.00000   0.00000
     Eigenvalues ---    0.00000   0.00000   0.00013   0.00018   0.00033
     Eigenvalues ---    0.00063   0.00115   0.00133   0.00166   0.00180
     Eigenvalues ---    0.00203   0.00218   0.00277   0.00284   0.00393
     Eigenvalues ---    0.00445   0.00506   0.00510   0.00590   0.00594
     Eigenvalues ---    0.00662   0.00674   0.00781   0.00975   0.01093
     Eigenvalues ---    0.01228   0.01646   0.01723   0.01741   0.01845
     Eigenvalues ---    0.01886   0.02009   0.02215   0.02391   0.02513
     Eigenvalues ---    0.02557   0.02729   0.02800   0.03091   0.03440
     Eigenvalues ---    0.03515   0.03549   0.03567   0.03646   0.04081
     Eigenvalues ---    0.04156   0.04218   0.04315   0.04611   0.04794
     Eigenvalues ---    0.04858   0.04880   0.05000   0.05050   0.05086
     Eigenvalues ---    0.05103   0.05133   0.05163   0.05302   0.05352
     Eigenvalues ---    0.05499   0.05595   0.05664   0.05694   0.05753
     Eigenvalues ---    0.05764   0.05794   0.06143   0.06246   0.06401
     Eigenvalues ---    0.06510   0.06556   0.06845   0.06965   0.07040
     Eigenvalues ---    0.07092   0.07206   0.07232   0.07291   0.07345
     Eigenvalues ---    0.07555   0.07921   0.07942   0.08019   0.08123
     Eigenvalues ---    0.08170   0.08571   0.08649   0.09113   0.09683
     Eigenvalues ---    0.09756   0.10024   0.10092   0.10214   0.10536
     Eigenvalues ---    0.11202   0.11419   0.11542   0.11919   0.12296
     Eigenvalues ---    0.12822   0.12913   0.13014   0.13019   0.13283
     Eigenvalues ---    0.13730   0.13782   0.13947   0.14195   0.14358
     Eigenvalues ---    0.15811   0.16369   0.16619   0.16692   0.16740
     Eigenvalues ---    0.16891   0.17203   0.17324   0.17632   0.17713
     Eigenvalues ---    0.18624   0.19126   0.20296   0.20639   0.20710
     Eigenvalues ---    0.20809   0.21783   0.22006   0.23157   0.24731
     Eigenvalues ---    0.26460   0.27613   0.29735   0.29779   0.30101
     Eigenvalues ---    0.30267   0.31610   0.32463   0.34293   0.34812
     Eigenvalues ---    0.35045   0.36759   0.39321   0.41776   0.42364
     Eigenvalues ---    0.44037   0.44866   0.45094   0.48450   0.49295
     Eigenvalues ---    0.50300   0.56082   0.57416   0.59203   0.62576
     Eigenvalues ---    0.65104   0.65785   0.67985   0.68285   0.69242
     Eigenvalues ---    0.70673   0.75539   0.78108   0.78395   0.79644
     Eigenvalues ---    0.82238   0.82995   0.83929   0.85840   0.87101
     Eigenvalues ---    0.88986   0.89488   0.90547   0.91132   0.92376
     Eigenvalues ---    0.93371   0.94069   0.94485   0.95046   0.95423
     Eigenvalues ---    0.96024   0.97472   0.99768   0.99849   1.00247
     Eigenvalues ---    1.01211   1.02100   1.04074   1.04436   1.05513
     Eigenvalues ---    1.05952   1.06220   1.06466   1.07957   1.08803
     Eigenvalues ---    1.10099   1.14164   1.16356   1.18016   1.20203
     Eigenvalues ---    1.23112   1.24189   1.28090   1.36944   1.39737
     Eigenvalues ---    1.48374   1.54055   1.57025   1.59423   1.60486
     Eigenvalues ---    1.71053   1.75624   1.81679   2.11672   2.28769
 Eigenvalue     1 is  -7.77D-16 should be greater than     0.000000 Eigenvector:
                          Y59       Y48       Y50       Y49       Y58
   1                    0.15347   0.15347   0.15347   0.15347   0.15347
                          Y60       Y43       Y38       Y47       Y42
   1                    0.15347   0.15347   0.15347   0.15347   0.15347
 Eigenvalue     2 is  -3.33D-16 should be greater than     0.000000 Eigenvector:
                          Y53       Y56       Y54       Y57       Y55
   1                    0.14043   0.14043   0.14043   0.14043   0.14043
                          Y51       Y70       Y71       Y68       Y65
   1                    0.14043   0.14043   0.14043   0.14043   0.14043
 Eigenvalue     3 is   0.00D+00 Eigenvector:
                          X46       X45       X41       X40       X47
   1                    0.14803   0.14803   0.14803   0.14803   0.14803
                          X42       X39       X44       X43       X38
   1                    0.14803   0.14803   0.14803   0.14803   0.14803
 Eigenvalue     4 is   3.03D-09 Eigenvector:
                          Z44       Z49       Z50       Z45       X59
   1                    0.27516   0.25119   0.24844   0.22195  -0.20455
                          Z39       Z60       X60       Z40       Z58
   1                    0.20210   0.18202  -0.17271   0.17212   0.16941
 Eigenvalue     5 is   7.26D-09 Eigenvector:
                          Z47       X45       X46       Z48       X40
   1                    0.23829  -0.23742  -0.23585   0.18861  -0.18335
                          X41       Z42       Y49       Z43       Y60
   1                   -0.18273   0.16898  -0.14531   0.14107  -0.13432
 Eigenvalue     6 is   9.97D-09 Eigenvector:
                          Z54       Z53       Z52       Z69       Z51
   1                    0.45013   0.34140   0.31694  -0.26426   0.25761
                          Z70       Z71       Z68       Y66       Y69
   1                   -0.24078  -0.22009  -0.19571  -0.18220  -0.17160
 Eigenvalue     7 is   2.40D-08 Eigenvector:
                          X54       X69       X53       X70       Y54
   1                    0.40995  -0.34501   0.34256  -0.25686  -0.24941
                          X68       Y71       X51       X52       X71
   1                   -0.22564   0.22385   0.20592   0.19074  -0.17613
 Eigenvalue     8 is   4.25D-08 Eigenvector:
                          Y47       X50       Y44       X49       Y60
   1                    0.35874  -0.35840  -0.27485  -0.26187  -0.23681
                          Y48       Y42       X47       Y49       Y46
   1                    0.22127   0.21779   0.21363  -0.20945   0.17321
 Eigenvalue     9 is   8.67D-08 Eigenvector:
                          Y45       Y59       Y46       X45       Y40
   1                    0.29984  -0.23753   0.23065   0.19987   0.19649
                          Y48       X46       Y41       Z50       Z69
   1                   -0.16985   0.16225   0.15788  -0.15463  -0.14490
 Eigenvalue    10 is   1.14D-07 Eigenvector:
                          X59       X60       X48       Y48       X58
   1                    0.20812   0.19819   0.17150   0.15664   0.15646
                          Y73       Y59       Y77       Y74       X45
   1                    0.14789   0.14233   0.13214   0.13172  -0.13169
 Eigenvalue    11 is   1.80D-07 Eigenvector:
                          Y64       Y62       Y61       Y63       Y37
   1                    0.25074   0.20880   0.20262   0.18965   0.15177
                          Z76       Z60       Y7        Y16       Z77
   1                   -0.15088   0.14390  -0.14258  -0.14098  -0.13929
 Eigenvalue    12 is   3.86D-06 Eigenvector:
                          X52       X66       X56       Z67       Z57
   1                    0.34061   0.33319  -0.31231  -0.29722   0.28808
                          X70       Z71       Y52       Y67       Y57
   1                   -0.27423   0.25120  -0.19968  -0.19541   0.18803
 Quadratic step=1.572D+01 exceeds max=3.000D-01 adjusted using Lamda=-5.899D-03.
 Angle between NR and scaled steps=  23.29 degrees.
 Angle between quadratic step and forces=  29.87 degrees.
 Linear search not attempted -- first point.
 B after Tr=     0.000099    0.001191   -0.000272
         Rot=    1.000000    0.000137    0.000001   -0.000008 Ang=   0.02 deg.
 Variable       Old X    -DE/DX   Delta X   Delta X   Delta X     New X
                                 (Linear)    (Quad)   (Total)
    X1       -9.35539   0.00001   0.00000   0.00123   0.00133  -9.35407
    Y1        0.44983  -0.00010   0.00000  -0.00197  -0.00107   0.44876
    Z1       -0.54966  -0.00003   0.00000   0.01844   0.01803  -0.53164
    X2       -9.63142   0.00011   0.00000   0.00644   0.00657  -9.62485
    Y2       -1.92556  -0.00002   0.00000  -0.00075  -0.00030  -1.92586
    Z2       -2.18038   0.00014   0.00000   0.01610   0.01633  -2.16406
    X3       -7.07801   0.00006   0.00000   0.00726   0.00741  -7.07060
    Y3       -2.70726   0.00000   0.00000   0.00801   0.00819  -2.69907
    Z3       -3.30602   0.00003   0.00000   0.01271   0.01316  -3.29286
    X4       -5.20519   0.00007   0.00000   0.00933   0.00948  -5.19571
    Y4       -3.14105   0.00018   0.00000   0.00963   0.01042  -3.13062
    Z4       -1.15821   0.00019   0.00000   0.01134   0.01191  -1.14630
    X5       -4.82360  -0.00002   0.00000   0.00650   0.00661  -4.81699
    Y5       -0.69988   0.00016   0.00000   0.00966   0.01089  -0.68899
    Z5        0.43492  -0.00012   0.00000   0.01184   0.01175   0.44667
    X6       -7.39027   0.00005   0.00000   0.00577   0.00586  -7.38440
    Y6        0.08141   0.00010   0.00000   0.00287   0.00437   0.08578
    Z6        1.54349   0.00019   0.00000   0.01548   0.01517   1.55866
    X7       -7.26122   0.00006   0.00000   0.01075   0.01093  -7.25029
    Y7       -4.41510   0.00008   0.00000   0.00960   0.00946  -4.40564
    Z7       -4.46367   0.00004   0.00000   0.00986   0.01077  -4.45289
    X8      -10.37195   0.00007   0.00000   0.01198   0.01214 -10.35981
    Y8       -3.48097  -0.00002   0.00000  -0.00433  -0.00358  -3.48455
    Z8       -1.02417   0.00008   0.00000   0.01475   0.01541  -1.00876
    X9      -10.99186   0.00002   0.00000   0.00392   0.00405 -10.98780
    Y9       -1.60649   0.00000   0.00000  -0.00242  -0.00241  -1.60891
    Z9       -3.70664   0.00012   0.00000   0.01798   0.01812  -3.68852
   X10       -8.75487  -0.00007   0.00000  -0.00680  -0.00673  -8.76160
   Y10        2.02902   0.00004   0.00000   0.00196   0.00254   2.03156
   Z10       -1.75803   0.00012   0.00000   0.01952   0.01867  -1.73936
   X11      -11.18742  -0.00001   0.00000   0.00068   0.00077 -11.18666
   Y11        0.96977  -0.00006   0.00000  -0.00961  -0.00852   0.96125
   Z11        0.26084   0.00015   0.00000   0.02220   0.02165   0.28249
   X12       -5.91560   0.00010   0.00000   0.01232   0.01249  -5.90311
   Y12       -4.63365  -0.00001   0.00000   0.00839   0.00952  -4.62413
   Z12        0.08167   0.00019   0.00000   0.01208   0.01306   0.09473
   X13       -4.30092  -0.00004   0.00000   0.00289   0.00298  -4.29795
   Y13        0.77312  -0.00013   0.00000   0.01102   0.01189   0.78501
   Z13       -0.93664   0.00020   0.00000   0.01298   0.01248  -0.92416
   X14       -8.02414   0.00007   0.00000   0.01187   0.01199  -8.01215
   Y14       -1.36436  -0.00005   0.00000   0.00031   0.00217  -1.36219
   Z14        2.88847   0.00014   0.00000   0.01593   0.01601   2.90448
   X15       -7.11425   0.00003   0.00000   0.00267   0.00274  -7.11152
   Y15        1.84770   0.00003   0.00000   0.00306   0.00485   1.85255
   Z15        2.59157   0.00011   0.00000   0.01607   0.01528   2.60685
   X16       -6.42065  -0.00001   0.00000   0.00198   0.00210  -6.41854
   Y16       -1.17046   0.00010   0.00000   0.01196   0.01181  -1.15865
   Z16       -4.53772   0.00007   0.00000   0.01469   0.01472  -4.52300
   X17       -2.68515   0.00004   0.00000   0.00817   0.00833  -2.67682
   Y17       -4.01121   0.00004   0.00000   0.00989   0.01049  -4.00072
   Z17       -2.01326   0.00006   0.00000   0.00725   0.00807  -2.00519
   X18       -1.42763   0.00003   0.00000   0.00703   0.00718  -1.42045
   Y18       -2.76395   0.00003   0.00000   0.01058   0.01070  -2.75325
   Z18       -3.85712   0.00000   0.00000   0.00687   0.00735  -3.84977
   X19       -1.37289   0.00009   0.00000   0.00797   0.00815  -1.36473
   Y19       -5.56846   0.00005   0.00000   0.00401   0.00506  -5.56340
   Z19       -0.46421   0.00001   0.00000   0.00144   0.00269  -0.46152
   X20        1.12142   0.00003   0.00000   0.00566   0.00582   1.12724
   Y20       -2.99429   0.00002   0.00000   0.00439   0.00446  -2.98983
   Z20       -4.18346  -0.00001   0.00000   0.00027   0.00082  -4.18264
   X21       -2.55213   0.00006   0.00000   0.00757   0.00770  -2.54443
   Y21       -1.52798   0.00011   0.00000   0.01581   0.01559  -1.51239
   Z21       -5.03676   0.00008   0.00000   0.01184   0.01198  -5.02479
   X22        1.17989  -0.00001   0.00000   0.00642   0.00661   1.18650
   Y22       -5.88742  -0.00004   0.00000  -0.00328  -0.00225  -5.88967
   Z22       -0.66673  -0.00000   0.00000  -0.00594  -0.00460  -0.67134
   X23       -2.45749   0.00005   0.00000   0.00899   0.00919  -2.44831
   Y23       -6.46857   0.00005   0.00000   0.00402   0.00545  -6.46312
   Z23        1.02416   0.00002   0.00000   0.00219   0.00368   1.02784
   X24        2.56572   0.00009   0.00000   0.00597   0.00615   2.57186
   Y24       -4.45425  -0.00005   0.00000  -0.00399  -0.00343  -4.45769
   Z24       -2.44893  -0.00006   0.00000  -0.00697  -0.00601  -2.45495
   X25        2.01917   0.00004   0.00000   0.00485   0.00499   2.02416
   Y25       -1.95538   0.00003   0.00000   0.00511   0.00477  -1.95060
   Z25       -5.69862   0.00000   0.00000   0.00027   0.00054  -5.69808
   X26        2.10461   0.00003   0.00000   0.00648   0.00669   2.11130
   Y26       -7.07430  -0.00005   0.00000  -0.00887  -0.00745  -7.08176
   Z26        0.71490  -0.00006   0.00000  -0.01082  -0.00915   0.70575
   X27        5.09814   0.00005   0.00000   0.00590   0.00608   5.10422
   Y27       -4.44974  -0.00005   0.00000  -0.01189  -0.01129  -4.46103
   Z27       -2.46451  -0.00007   0.00000  -0.01444  -0.01348  -2.47799
   X28        6.51850   0.00005   0.00000   0.00912   0.00931   6.52781
   Y28       -5.52955  -0.00015   0.00000  -0.02355  -0.02236  -5.55191
   Z28       -0.33928  -0.00012   0.00000  -0.02250  -0.02124  -0.36053
   X29        6.27268   0.00003   0.00000   0.00327   0.00349   6.27617
   Y29       -7.58064  -0.00013   0.00000  -0.02309  -0.02188  -7.60252
   Z29       -0.26090  -0.00016   0.00000  -0.02885  -0.02703  -0.28793
   X30        5.82287   0.00011   0.00000   0.01739   0.01756   5.84043
   Y30       -4.69720  -0.00016   0.00000  -0.02759  -0.02592  -4.72312
   Z30        1.43185  -0.00010   0.00000  -0.01737  -0.01634   1.41550
   X31        6.55767   0.00006   0.00000   0.00777   0.00792   6.56559
   Y31       -2.47902  -0.00006   0.00000  -0.01181  -0.01155  -2.49057
   Z31       -3.77267  -0.00010   0.00000  -0.01227  -0.01185  -3.78452
   X32        7.01470   0.00000   0.00000   0.00044   0.00060   7.01530
   Y32       -3.08983  -0.00005   0.00000  -0.00683  -0.00709  -3.09692
   Z32       -5.69991  -0.00009   0.00000  -0.01561  -0.01502  -5.71493
   X33        5.46259   0.00006   0.00000   0.01255   0.01267   5.47527
   Y33       -0.72851  -0.00003   0.00000  -0.00839  -0.00816  -0.73667
   Z33       -3.83864  -0.00001   0.00000  -0.00314  -0.00320  -3.84184
   X34       -2.70023   0.00021   0.00000   0.00632   0.00643  -2.69380
   Y34       -0.83641   0.00018   0.00000   0.01110   0.01284  -0.82357
   Z34        2.15450   0.00008   0.00000   0.01207   0.01201   2.16651
   X35       -2.76059  -0.00007   0.00000   0.00436   0.00449  -2.75610
   Y35       -2.66145  -0.00002   0.00000   0.00016   0.00254  -2.65891
   Z35        4.51514   0.00000   0.00000   0.00340   0.00385   4.51899
   X36       -4.79701  -0.00001   0.00000   0.00902   0.00919  -4.78783
   Y36       -4.57660   0.00008   0.00000  -0.00401  -0.00169  -4.57829
   Z36        4.42810  -0.00014   0.00000  -0.01381  -0.01284   4.41526
   X37       -0.19005   0.00012   0.00000   0.00604   0.00618  -0.18387
   Y37       -3.72484   0.00004   0.00000   0.00499   0.00753  -3.71731
   Z37        4.93373   0.00003   0.00000   0.00600   0.00674   4.94048
   X38       -1.80909  -0.00023   0.00000  -0.03653  -0.03651  -1.84560
   Y38        5.10217   0.00016   0.00000   0.01970   0.02090   5.12306
   Z38        0.14649  -0.00004   0.00000  -0.01239  -0.01407   0.13243
   X39       -0.58967  -0.00011   0.00000  -0.01346  -0.01342  -0.60309
   Y39        3.78295   0.00015   0.00000   0.01991   0.02060   3.80355
   Z39       -1.79458  -0.00012   0.00000   0.00185   0.00054  -1.79404
   X40       -1.65177   0.00011   0.00000   0.00747   0.00752  -1.64425
   Y40        3.71420   0.00000   0.00000   0.00663   0.00664   3.72084
   Z40       -4.20235   0.00004   0.00000  -0.00673  -0.00802  -4.21038
   X41       -3.96538   0.00002   0.00000   0.00719   0.00722  -3.95816
   Y41        4.88337  -0.00002   0.00000  -0.00391  -0.00407   4.87930
   Z41       -4.68624  -0.00019   0.00000  -0.03090  -0.03251  -4.71875
   X42       -5.21126  -0.00006   0.00000  -0.01422  -0.01421  -5.22547
   Y42        6.14465  -0.00000   0.00000  -0.00124  -0.00089   6.14376
   Z42       -2.74056  -0.00029   0.00000  -0.04632  -0.04829  -2.78884
   X43       -4.12639  -0.00028   0.00000  -0.03665  -0.03665  -4.16304
   Y43        6.25526   0.00011   0.00000   0.00958   0.01061   6.26586
   Z43       -0.34450  -0.00025   0.00000  -0.03663  -0.03862  -0.38312
   X44        1.14109  -0.00010   0.00000  -0.01307  -0.01301   1.12808
   Y44        2.74934   0.00015   0.00000   0.02792   0.02875   2.77810
   Z44       -1.38371   0.00011   0.00000   0.02021   0.01919  -1.36453
   X45       -0.66993   0.00013   0.00000   0.02396   0.02403  -0.64590
   Y45        2.73052  -0.00001   0.00000   0.00420   0.00382   2.73434
   Z45       -5.71680   0.00003   0.00000   0.00551   0.00449  -5.71231
   X46       -4.79367   0.00014   0.00000   0.02370   0.02373  -4.76993
   Y46        4.81311  -0.00011   0.00000  -0.01401  -0.01469   4.79842
   Z46       -6.56257  -0.00024   0.00000  -0.03783  -0.03942  -6.60199
   X47       -7.02619  -0.00007   0.00000  -0.01367  -0.01367  -7.03987
   Y47        7.04038  -0.00001   0.00000  -0.00756  -0.00734   7.03305
   Z47       -3.08095  -0.00043   0.00000  -0.06604  -0.06825  -3.14920
   X48       -5.09873  -0.00031   0.00000  -0.05356  -0.05358  -5.15231
   Y48        7.23298   0.00013   0.00000   0.01200   0.01342   7.24640
   Z48        1.17996  -0.00034   0.00000  -0.04897  -0.05123   1.12873
   X49        0.49813   0.00041   0.00000  -0.01317  -0.01313   0.48501
   Y49        2.98272   0.00049   0.00000   0.05248   0.05463   3.03736
   Z49        3.49671   0.00003   0.00000  -0.00589  -0.00699   3.48972
   X50       -0.60660  -0.00013   0.00000   0.02092   0.02099  -0.58561
   Y50        1.56486  -0.00013   0.00000   0.02924   0.03121   1.59607
   Z50        2.89619  -0.00012   0.00000  -0.01637  -0.01707   2.87912
   X51        4.48218  -0.00024   0.00000   0.00147   0.00155   4.48374
   Y51        0.39044   0.00021   0.00000  -0.00426  -0.00228   0.38816
   Z51        2.60043   0.00020   0.00000   0.01576   0.01539   2.61583
   X52        3.80566   0.00002   0.00000  -0.00747  -0.00737   3.79830
   Y52       -0.31953  -0.00010   0.00000  -0.00027   0.00113  -0.31841
   Z52        0.51656  -0.00004   0.00000   0.01715   0.01697   0.53353
   X53        3.99993  -0.00008   0.00000  -0.00369  -0.00359   3.99634
   Y53       -0.85440   0.00002   0.00000   0.00010   0.00265  -0.85176
   Z53        4.71515   0.00022   0.00000   0.01723   0.01720   4.73235
   X54        2.57345  -0.00002   0.00000  -0.01287  -0.01274   2.56070
   Y54       -2.05980   0.00012   0.00000   0.01078   0.01324  -2.04657
   Z54        4.46916   0.00006   0.00000   0.01911   0.01940   4.48857
   X55        6.06349   0.00020   0.00000   0.02128   0.02133   6.08482
   Y55        2.72788  -0.00025   0.00000  -0.01697  -0.01485   2.71303
   Z55        3.03363  -0.00003   0.00000   0.01177   0.01077   3.04440
   X56        5.19365   0.00025   0.00000   0.04102   0.04105   5.23470
   Y56        3.75398  -0.00013   0.00000  -0.01992  -0.01738   3.73659
   Z56        4.60369   0.00018   0.00000   0.02470   0.02342   4.62712
   X57        7.94348   0.00029   0.00000   0.02449   0.02455   7.96804
   Y57        2.12594  -0.00015   0.00000  -0.02961  -0.02729   2.09865
   Z57        3.67964  -0.00006   0.00000  -0.00822  -0.00904   3.67059
   X58       -0.65275  -0.00039   0.00000  -0.05991  -0.05990  -0.71265
   Y58        5.24280   0.00045   0.00000   0.03044   0.03238   5.27517
   Z58        2.76023  -0.00015   0.00000  -0.00252  -0.00424   2.75599
   X59       -2.11787  -0.00055   0.00000  -0.08374  -0.08374  -2.20161
   Y59        5.84606  -0.00021   0.00000  -0.01075  -0.00847   5.83759
   Z59        4.11325  -0.00004   0.00000  -0.00992  -0.01179   4.10147
   X60        0.82041  -0.00068   0.00000  -0.09321  -0.09323   0.72718
   Y60        6.70987   0.00035   0.00000   0.06307   0.06503   6.77490
   Z60        2.78583   0.00014   0.00000   0.01706   0.01494   2.80077
   X61       -3.30169  -0.00006   0.00000  -0.01112  -0.01103  -3.31272
   Y61       -0.72186  -0.00006   0.00000  -0.01532  -0.01220  -0.73406
   Z61        7.23436   0.00007   0.00000   0.01161   0.01153   7.24589
   X62       -1.84416  -0.00014   0.00000  -0.01853  -0.01845  -1.86262
   Y62        0.74089  -0.00001   0.00000  -0.00792  -0.00477   0.73611
   Z62        7.22609   0.00016   0.00000   0.02288   0.02240   7.24848
   X63       -5.17817  -0.00011   0.00000  -0.01495  -0.01487  -5.19304
   Y63        0.11867  -0.00014   0.00000  -0.02376  -0.02072   0.09795
   Z63        7.06474   0.00009   0.00000   0.01157   0.01126   7.07600
   X64       -3.17020  -0.00005   0.00000  -0.00968  -0.00957  -3.17977
   Y64       -1.88935  -0.00013   0.00000  -0.02327  -0.01969  -1.90903
   Z64        8.92809   0.00003   0.00000   0.00599   0.00624   8.93432
   X65        6.25564   0.00007   0.00000   0.00675   0.00678   6.26242
   Y65        4.38364  -0.00003   0.00000  -0.00527  -0.00379   4.37984
   Z65        0.68631   0.00011   0.00000   0.01882   0.01737   0.70368
   X66        6.98879   0.00002   0.00000  -0.00025  -0.00020   6.98859
   Y66        3.26327   0.00003   0.00000   0.00431   0.00537   3.26865
   Z66       -0.89569   0.00003   0.00000   0.00871   0.00756  -0.88814
   X67        4.34796  -0.00000   0.00000   0.00258   0.00260   4.35056
   Y67        4.96860  -0.00003   0.00000  -0.00556  -0.00426   4.96434
   Z67        0.13224   0.00019   0.00000   0.03276   0.03114   0.16338
   X68        7.91540   0.00001   0.00000   0.00313   0.00313   7.91853
   Y68        6.70218   0.00001   0.00000  -0.00330  -0.00168   6.70050
   Z68        1.11152   0.00011   0.00000   0.02223   0.02015   1.13167
   X69        8.05511  -0.00009   0.00000  -0.01098  -0.01100   8.04411
   Y69        7.85055   0.00007   0.00000   0.00751   0.00867   7.85922
   Z69       -0.60156   0.00017   0.00000   0.02833   0.02592  -0.57563
   X70        7.14638   0.00002   0.00000   0.00845   0.00841   7.15479
   Y70        7.89785  -0.00008   0.00000  -0.01455  -0.01252   7.88533
   Z70        2.61523   0.00020   0.00000   0.03394   0.03153   2.64676
   X71        9.83311   0.00003   0.00000   0.00809   0.00809   9.84120
   Y71        6.15467   0.00003   0.00000  -0.00071   0.00110   6.15576
   Z71        1.66674   0.00003   0.00000   0.00745   0.00552   1.67226
   X72        9.24155   0.00006   0.00000   0.00971   0.00989   9.25144
   Y72       -4.74648  -0.00017   0.00000  -0.03003  -0.02894  -4.77542
   Z72       -0.87749  -0.00018   0.00000  -0.02868  -0.02763  -0.90513
   X73       10.37307   0.00010   0.00000   0.01575   0.01593  10.38899
   Y73       -4.67099  -0.00023   0.00000  -0.04000  -0.03842  -4.70941
   Z73        0.84622  -0.00019   0.00000  -0.03221  -0.03118   0.81504
   X74       10.12602  -0.00000   0.00000   0.00105   0.00125  10.12727
   Y74       -6.08834  -0.00016   0.00000  -0.02786  -0.02711  -6.11545
   Z74       -2.18018  -0.00022   0.00000  -0.03679  -0.03537  -2.21555
   X75        8.92503   0.00005   0.00000   0.01320   0.01333   8.93836
   Y75       -2.16283  -0.00015   0.00000  -0.02433  -0.02359  -2.18642
   Z75       -2.13860  -0.00008   0.00000  -0.01777  -0.01742  -2.15603
   X76        8.54655   0.00013   0.00000   0.02124   0.02135   8.56790
   Y76       -0.72794  -0.00018   0.00000  -0.02893  -0.02780  -0.75574
   Z76       -0.70026  -0.00006   0.00000  -0.01108  -0.01113  -0.71139
   X77       10.56946   0.00007   0.00000   0.01156   0.01169  10.58116
   Y77       -1.57873  -0.00013   0.00000  -0.02441  -0.02395  -1.60268
   Z77       -3.23965  -0.00013   0.00000  -0.02029  -0.02010  -3.25975
         Item               Value     Threshold  Converged?
 Maximum Force            0.000684     0.000450     NO 
 RMS     Force            0.000144     0.000300     YES
 Maximum Displacement     0.093227     0.001800     NO 
 RMS     Displacement     0.019709     0.001200     NO 
 Predicted change in Energy=-5.538345D-04
 GradGradGradGradGradGradGradGradGradGradGradGradGradGradGradGradGradGrad

 Leave Link  103 at Thu Feb  7 23:44:30 2019, MaxMem=   104857600 cpu:              31.3 elap:               1.4
 (Enter /home/xinyan/g16/l9999.exe)
 1\1\GINC-TSE4\Force\RM062X\6-31G(d)\C27H41N3O5S1\STEVETSE\07-Feb-2019\
 0\\#p M062X/6-31G* em=gd3 force int=ultrafine\\Title\\0,1\C,-4.95066,0
 .23804,-0.29087\C,-5.09673,-1.01896,-1.15381\C,-3.74552,-1.43262,-1.74
 947\C,-2.75447,-1.66217,-0.6129\C,-2.55254,-0.37036,0.23015\C,-3.91076
 ,0.04308,0.81678\H,-3.84247,-2.33637,-2.36207\H,-5.4886,-1.84205,-0.54
 197\H,-5.81664,-0.85012,-1.96147\H,-4.63288,1.07371,-0.93031\H,-5.9201
 3,0.51318,0.13803\H,-3.1304,-2.45202,0.04322\H,-2.27595,0.40912,-0.495
 65\H,-4.24619,-0.72199,1.52851\H,-3.7647,0.97776,1.3714\H,-3.39766,-0.
 61938,-2.40126\N,-1.42092,-2.12264,-1.06537\C,-0.75547,-1.46262,-2.041
 1\C,-0.7265,-2.9467,-0.24565\C,0.59343,-1.58451,-2.21379\H,-1.35053,-0
 .80857,-2.66534\C,0.62437,-3.11549,-0.35282\H,-1.30045,-3.42302,0.5419
 6\C,1.35772,-2.35709,-1.29592\H,1.0685,-1.03474,-3.01558\H,1.11371,-3.
 74356,0.37831\N,2.69782,-2.3547,-1.30416\C,3.44944,-2.92611,-0.17954\H
 ,3.31936,-4.0115,-0.13806\H,3.08133,-2.48565,0.7577\C,3.47017,-1.31184
 ,-1.99641\H,3.71202,-1.63507,-3.01626\H,2.89068,-0.38551,-2.03132\N,-1
 .4289,-0.44261,1.14011\S,-1.46084,-1.40838,2.38931\O,-2.53847,-2.42183
 ,2.34325\O,-0.10057,-1.9711,2.61082\C,-0.95733,2.69995,0.07752\C,-0.31
 204,2.00185,-0.94965\C,-0.87408,1.96547,-2.22379\C,-2.09839,2.58417,-2
 .47985\C,-2.75768,3.25161,-1.45024\C,-2.18359,3.31014,-0.1823\H,0.6038
 4,1.45489,-0.73223\H,-0.35451,1.44493,-3.0252\H,-2.5367,2.54699,-3.472
 76\H,-3.7181,3.72561,-1.63037\H,-2.69813,3.82753,0.62441\O,0.2636,1.57
 839,1.85038\H,-0.321,0.82809,1.5326\C,2.37187,0.20661,1.37609\O,2.0138
 7,-0.16909,0.27335\O,2.11667,-0.45213,2.49515\H,1.36181,-1.09,2.36498\
 C,3.20866,1.44353,1.60533\H,2.74836,1.98652,2.43617\H,4.20351,1.125,1.
 94718\C,-0.34542,2.77437,1.46065\H,-1.12073,3.0936,2.17664\H,0.43414,3
 .55071,1.4742\C,-1.74718,-0.38199,3.82826\H,-0.97589,0.39206,3.82388\H
 ,-2.74017,0.0628,3.7385\H,-1.6776,-0.9998,4.72454\C,3.31034,2.31972,0.
 36318\H,3.69831,1.72685,-0.47398\H,2.30084,2.62927,0.06998\C,4.18865,3
 .54664,0.58819\H,4.26258,4.15433,-0.31833\H,3.7817,4.17936,1.38392\H,5
 .20346,3.25691,0.882\C,4.89042,-2.51173,-0.46435\H,5.48919,-2.47178,0.
 4478\H,5.35846,-3.22181,-1.1537\C,4.72292,-1.14452,-1.1317\H,4.52264,-
 0.38521,-0.37056\H,5.59312,-0.83543,-1.71435\\Version=ES64L-G16RevA.03
 \State=1-A\HF=-1991.3881084\RMSD=5.221e-09\RMSF=1.441e-04\Dipole=0.607
 2434,-0.0849268,-2.5900023\Quadrupole=10.5719485,-5.4463774,-5.1255711
 ,-9.9504262,-0.1651484,9.2909122\PG=C01 [X(C27H41N3O5S1)]\\@


 A warm smile is the universal language of kindness.
                             -- William Arthur Ward
 Job cpu time:       0 days  1 hours 18 minutes  3.4 seconds.
 Elapsed time:       0 days  0 hours  3 minutes 16.3 seconds.
 File lengths (MBytes):  RWF=    216 Int=      0 D2E=      0 Chk=     25 Scr=      1
 Normal termination of Gaussian 16 at Thu Feb  7 23:44:30 2019.
