 Entering Gaussian System, Link 0=g16
 Input=C27N3H41SO5-113.gjf
 Output=C27N3H41SO5-113.log
 Initial command:
 /home/xinyan/g16/l1.exe "/local/home/tmp/Gau-13463.inp" -scrdir="/local/home/tmp/"
 Entering Link 1 = /home/xinyan/g16/l1.exe PID=     13464.
  
 Copyright (c) 1988,1990,1992,1993,1995,1998,2003,2009,2016,
            Gaussian, Inc.  All Rights Reserved.
  
 This is part of the Gaussian(R) 16 program.  It is based on
 the Gaussian(R) 09 system (copyright 2009, Gaussian, Inc.),
 the Gaussian(R) 03 system (copyright 2003, Gaussian, Inc.),
 the Gaussian(R) 98 system (copyright 1998, Gaussian, Inc.),
 the Gaussian(R) 94 system (copyright 1995, Gaussian, Inc.),
 the Gaussian 92(TM) system (copyright 1992, Gaussian, Inc.),
 the Gaussian 90(TM) system (copyright 1990, Gaussian, Inc.),
 the Gaussian 88(TM) system (copyright 1988, Gaussian, Inc.),
 the Gaussian 86(TM) system (copyright 1986, Carnegie Mellon
 University), and the Gaussian 82(TM) system (copyright 1983,
 Carnegie Mellon University). Gaussian is a federally registered
 trademark of Gaussian, Inc.
  
 This software contains proprietary and confidential information,
 including trade secrets, belonging to Gaussian, Inc.
  
 This software is provided under written license and may be
 used, copied, transmitted, or stored only in accord with that
 written license.
  
 The following legend is applicable only to US Government
 contracts under FAR:
  
                    RESTRICTED RIGHTS LEGEND
  
 Use, reproduction and disclosure by the US Government is
 subject to restrictions as set forth in subparagraphs (a)
 and (c) of the Commercial Computer Software - Restricted
 Rights clause in FAR 52.227-19.
  
 Gaussian, Inc.
 340 Quinnipiac St., Bldg. 40, Wallingford CT 06492
  
  
 ---------------------------------------------------------------
 Warning -- This program may not be used in any manner that
 competes with the business of Gaussian, Inc. or will provide
 assistance to any competitor of Gaussian, Inc.  The licensee
 of this program is prohibited from giving any competitor of
 Gaussian, Inc. access to this program.  By using this program,
 the user acknowledges that Gaussian, Inc. is engaged in the
 business of creating and licensing software in the field of
 computational chemistry and represents and warrants to the
 licensee that it is not a competitor of Gaussian, Inc. and that
 it will not use this program in any manner prohibited above.
 ---------------------------------------------------------------
  

 Cite this work as:
 Gaussian 16, Revision A.03,
 M. J. Frisch, G. W. Trucks, H. B. Schlegel, G. E. Scuseria, 
 M. A. Robb, J. R. Cheeseman, G. Scalmani, V. Barone, 
 G. A. Petersson, H. Nakatsuji, X. Li, M. Caricato, A. V. Marenich, 
 J. Bloino, B. G. Janesko, R. Gomperts, B. Mennucci, H. P. Hratchian, 
 J. V. Ortiz, A. F. Izmaylov, J. L. Sonnenberg, D. Williams-Young, 
 F. Ding, F. Lipparini, F. Egidi, J. Goings, B. Peng, A. Petrone, 
 T. Henderson, D. Ranasinghe, V. G. Zakrzewski, J. Gao, N. Rega, 
 G. Zheng, W. Liang, M. Hada, M. Ehara, K. Toyota, R. Fukuda, 
 J. Hasegawa, M. Ishida, T. Nakajima, Y. Honda, O. Kitao, H. Nakai, 
 T. Vreven, K. Throssell, J. A. Montgomery, Jr., J. E. Peralta, 
 F. Ogliaro, M. J. Bearpark, J. J. Heyd, E. N. Brothers, K. N. Kudin, 
 V. N. Staroverov, T. A. Keith, R. Kobayashi, J. Normand, 
 K. Raghavachari, A. P. Rendell, J. C. Burant, S. S. Iyengar, 
 J. Tomasi, M. Cossi, J. M. Millam, M. Klene, C. Adamo, R. Cammi, 
 J. W. Ochterski, R. L. Martin, K. Morokuma, O. Farkas, 
 J. B. Foresman, and D. J. Fox, Gaussian, Inc., Wallingford CT, 2016.
 
 ******************************************
 Gaussian 16:  ES64L-G16RevA.03 25-Dec-2016
                 7-Feb-2019 
 ******************************************
 %nproc=24
 Will use up to   24 processors via shared memory.
 ------------------------------------------
 #p M062X/6-31G* em=gd3 force int=ultrafine
 ------------------------------------------
 1/10=7,30=1,38=1/1,3;
 2/12=2,17=6,18=5,40=1/2;
 3/5=1,6=6,7=1,11=2,25=1,30=1,71=1,74=-55,75=-5,124=31/1,2,3;
 4//1;
 5/5=2,38=5/2;
 6/7=2,8=2,9=2,10=2,28=1/1;
 7/29=1/1,2,3,16;
 1/10=7,30=1/3;
 99//99;
 Leave Link    1 at Thu Feb  7 14:48:01 2019, MaxMem=           0 cpu:               1.9 elap:               0.1
 (Enter /home/xinyan/g16/l101.exe)
 -----
 Title
 -----
 Symbolic Z-matrix:
 Charge =  0 Multiplicity = 1
 C                    -4.8963    0.24592  -0.43239 
 C                    -5.08381  -1.02327  -1.26904 
 C                    -3.75219  -1.47637  -1.88054 
 C                    -2.75581  -1.71926  -0.75298 
 C                    -2.5229   -0.4251    0.069 
 C                    -3.85024   0.05044   0.66979 
 H                    -3.87623  -2.38514  -2.47913 
 H                    -5.48184  -1.82724  -0.63606 
 H                    -5.81472  -0.85184  -2.06547 
 H                    -4.57363   1.06343  -1.0903 
 H                    -5.8508    0.54753   0.01113 
 H                    -3.14885  -2.49059  -0.08364 
 H                    -2.18929   0.34528  -0.63798 
 H                    -4.20802  -0.68368   1.39954 
 H                    -3.66782   0.99417   1.19482 
 H                    -3.38982  -0.68136  -2.54626 
 N                    -1.43054  -2.20268  -1.1935 
 C                    -0.72593  -1.50068  -2.1208 
 C                    -0.75199  -3.01922  -0.34361 
 C                     0.63139  -1.55492  -2.19562 
 H                    -1.30557  -0.8627   -2.77662 
 C                     0.60522  -3.11073  -0.34389 
 H                    -1.35698  -3.54034   0.39053 
 C                     1.36528  -2.27631  -1.20653 
 H                     1.13711  -0.96893  -2.95102 
 H                     1.07547  -3.72253   0.41275 
 N                     2.68506  -2.17575  -1.09732 
 C                     3.39149  -2.65679   0.09996 
 H                     3.27074  -3.73776   0.21176 
 H                     2.97831  -2.13114   0.97344 
 C                     3.42797  -1.09153  -1.75451 
 H                     3.69215  -1.38481  -2.77794 
 H                     2.80053  -0.19632  -1.77019 
 N                    -1.41879  -0.55149   1.00735 
 S                    -1.49773  -1.43275   2.37667 
 O                    -2.70298  -2.26607   2.31961 
 O                    -0.21248  -2.10797   2.57467 
 C                    -0.71438   2.46496   0.25755 
 C                    -0.22013   2.00404  -0.97298 
 C                    -0.98025   2.12591  -2.13468 
 C                    -2.25059   2.70163  -2.10181 
 C                    -2.75466   3.15794  -0.88709 
 C                    -1.98828   3.0405    0.27281 
 H                     0.7379    1.49656  -0.99009 
 H                    -0.56998   1.77401  -3.07908 
 H                    -2.83665   2.79968  -3.01149 
 H                    -3.74134   3.61071  -0.84018 
 H                    -2.38986   3.41105   1.21405 
 O                     0.5507    1.27433   2.10977 
 H                    -0.43167  -0.30066   0.7185 
 C                     1.70637   0.56126   1.47812 
 O                     1.32844  -0.01814   0.35788 
 O                     2.06684  -0.34766   2.50215 
 H                     1.37066  -1.02985   2.49195 
 C                     2.90806   1.53907   1.40971 
 H                     2.84143   2.2351    2.25649 
 H                     3.80045   0.93049   1.60247 
 C                     0.09862   2.4786    1.55597 
 H                    -0.54802   2.92394   2.32338 
 H                     0.9365    3.17965   1.42502 
 C                    -1.66778  -0.25194   3.69448 
 H                    -0.7947    0.40321   3.62817 
 H                    -2.5961    0.30032   3.53831 
 H                    -1.69641  -0.80533   4.63457 
 C                     3.11319   2.30572   0.10637 
 H                     3.1702    1.59332  -0.72449 
 H                     2.25544   2.94943  -0.11898 
 C                     4.37961   3.15941   0.15027 
 H                     4.53919   3.69991  -0.7879 
 H                     4.32142   3.8983    0.95726 
 H                     5.26377   2.53983   0.33915 
 C                     4.83433  -2.2457   -0.17046 
 H                     5.41797  -2.17936   0.74945 
 H                     5.31514  -2.96879  -0.83852 
 C                     4.66054  -0.894    -0.86699 
 H                     4.4318   -0.13144  -0.11813 
 H                     5.53677  -0.57753  -1.43667 
 
 ITRead=  0  0  0  0  0  0  0  0  0  0  0  0  0  0  0  0  0  0  0  0
 ITRead=  0  0  0  0  0  0  0  0  0  0  0  0  0  0  0  0  0  0  0  0
 ITRead=  0  0  0  0  0  0  0  0  0  0  0  0  0  0  0  0  0  0  0  0
 ITRead=  0  0  0  0  0  0  0  0  0  0  0  0  0  0  0  0  0
 MicOpt= -1 -1 -1 -1 -1 -1 -1 -1 -1 -1 -1 -1 -1 -1 -1 -1 -1 -1 -1 -1
 MicOpt= -1 -1 -1 -1 -1 -1 -1 -1 -1 -1 -1 -1 -1 -1 -1 -1 -1 -1 -1 -1
 MicOpt= -1 -1 -1 -1 -1 -1 -1 -1 -1 -1 -1 -1 -1 -1 -1 -1 -1 -1 -1 -1
 MicOpt= -1 -1 -1 -1 -1 -1 -1 -1 -1 -1 -1 -1 -1 -1 -1 -1 -1
 NAtoms=     77 NQM=       77 NQMF=       0 NMMI=      0 NMMIF=      0
                NMic=       0 NMicF=      0.
                    Isotopes and Nuclear Properties:
 (Nuclear quadrupole moments (NQMom) in fm**2, nuclear magnetic moments (NMagM)
  in nuclear magnetons)

  Atom         1           2           3           4           5           6           7           8           9          10
 IAtWgt=          12          12          12          12          12          12           1           1           1           1
 AtmWgt=  12.0000000  12.0000000  12.0000000  12.0000000  12.0000000  12.0000000   1.0078250   1.0078250   1.0078250   1.0078250
 NucSpn=           0           0           0           0           0           0           1           1           1           1
 AtZEff=  -0.0000000  -0.0000000  -0.0000000  -0.0000000  -0.0000000  -0.0000000  -0.0000000  -0.0000000  -0.0000000  -0.0000000
 NQMom=    0.0000000   0.0000000   0.0000000   0.0000000   0.0000000   0.0000000   0.0000000   0.0000000   0.0000000   0.0000000
 NMagM=    0.0000000   0.0000000   0.0000000   0.0000000   0.0000000   0.0000000   2.7928460   2.7928460   2.7928460   2.7928460
 AtZNuc=   6.0000000   6.0000000   6.0000000   6.0000000   6.0000000   6.0000000   1.0000000   1.0000000   1.0000000   1.0000000

  Atom        11          12          13          14          15          16          17          18          19          20
 IAtWgt=           1           1           1           1           1           1          14          12          12          12
 AtmWgt=   1.0078250   1.0078250   1.0078250   1.0078250   1.0078250   1.0078250  14.0030740  12.0000000  12.0000000  12.0000000
 NucSpn=           1           1           1           1           1           1           2           0           0           0
 AtZEff=  -0.0000000  -0.0000000  -0.0000000  -0.0000000  -0.0000000  -0.0000000  -0.0000000  -0.0000000  -0.0000000  -0.0000000
 NQMom=    0.0000000   0.0000000   0.0000000   0.0000000   0.0000000   0.0000000   2.0440000   0.0000000   0.0000000   0.0000000
 NMagM=    2.7928460   2.7928460   2.7928460   2.7928460   2.7928460   2.7928460   0.4037610   0.0000000   0.0000000   0.0000000
 AtZNuc=   1.0000000   1.0000000   1.0000000   1.0000000   1.0000000   1.0000000   7.0000000   6.0000000   6.0000000   6.0000000

  Atom        21          22          23          24          25          26          27          28          29          30
 IAtWgt=           1          12           1          12           1           1          14          12           1           1
 AtmWgt=   1.0078250  12.0000000   1.0078250  12.0000000   1.0078250   1.0078250  14.0030740  12.0000000   1.0078250   1.0078250
 NucSpn=           1           0           1           0           1           1           2           0           1           1
 AtZEff=  -0.0000000  -0.0000000  -0.0000000  -0.0000000  -0.0000000  -0.0000000  -0.0000000  -0.0000000  -0.0000000  -0.0000000
 NQMom=    0.0000000   0.0000000   0.0000000   0.0000000   0.0000000   0.0000000   2.0440000   0.0000000   0.0000000   0.0000000
 NMagM=    2.7928460   0.0000000   2.7928460   0.0000000   2.7928460   2.7928460   0.4037610   0.0000000   2.7928460   2.7928460
 AtZNuc=   1.0000000   6.0000000   1.0000000   6.0000000   1.0000000   1.0000000   7.0000000   6.0000000   1.0000000   1.0000000

  Atom        31          32          33          34          35          36          37          38          39          40
 IAtWgt=          12           1           1          14          32          16          16          12          12          12
 AtmWgt=  12.0000000   1.0078250   1.0078250  14.0030740  31.9720718  15.9949146  15.9949146  12.0000000  12.0000000  12.0000000
 NucSpn=           0           1           1           2           0           0           0           0           0           0
 AtZEff=  -0.0000000  -0.0000000  -0.0000000  -0.0000000  -0.0000000  -0.0000000  -0.0000000  -0.0000000  -0.0000000  -0.0000000
 NQMom=    0.0000000   0.0000000   0.0000000   2.0440000   0.0000000   0.0000000   0.0000000   0.0000000   0.0000000   0.0000000
 NMagM=    0.0000000   2.7928460   2.7928460   0.4037610   0.0000000   0.0000000   0.0000000   0.0000000   0.0000000   0.0000000
 AtZNuc=   6.0000000   1.0000000   1.0000000   7.0000000  16.0000000   8.0000000   8.0000000   6.0000000   6.0000000   6.0000000

  Atom        41          42          43          44          45          46          47          48          49          50
 IAtWgt=          12          12          12           1           1           1           1           1          16           1
 AtmWgt=  12.0000000  12.0000000  12.0000000   1.0078250   1.0078250   1.0078250   1.0078250   1.0078250  15.9949146   1.0078250
 NucSpn=           0           0           0           1           1           1           1           1           0           1
 AtZEff=  -0.0000000  -0.0000000  -0.0000000  -0.0000000  -0.0000000  -0.0000000  -0.0000000  -0.0000000  -0.0000000  -0.0000000
 NQMom=    0.0000000   0.0000000   0.0000000   0.0000000   0.0000000   0.0000000   0.0000000   0.0000000   0.0000000   0.0000000
 NMagM=    0.0000000   0.0000000   0.0000000   2.7928460   2.7928460   2.7928460   2.7928460   2.7928460   0.0000000   2.7928460
 AtZNuc=   6.0000000   6.0000000   6.0000000   1.0000000   1.0000000   1.0000000   1.0000000   1.0000000   8.0000000   1.0000000

  Atom        51          52          53          54          55          56          57          58          59          60
 IAtWgt=          12          16          16           1          12           1           1          12           1           1
 AtmWgt=  12.0000000  15.9949146  15.9949146   1.0078250  12.0000000   1.0078250   1.0078250  12.0000000   1.0078250   1.0078250
 NucSpn=           0           0           0           1           0           1           1           0           1           1
 AtZEff=  -0.0000000  -0.0000000  -0.0000000  -0.0000000  -0.0000000  -0.0000000  -0.0000000  -0.0000000  -0.0000000  -0.0000000
 NQMom=    0.0000000   0.0000000   0.0000000   0.0000000   0.0000000   0.0000000   0.0000000   0.0000000   0.0000000   0.0000000
 NMagM=    0.0000000   0.0000000   0.0000000   2.7928460   0.0000000   2.7928460   2.7928460   0.0000000   2.7928460   2.7928460
 AtZNuc=   6.0000000   8.0000000   8.0000000   1.0000000   6.0000000   1.0000000   1.0000000   6.0000000   1.0000000   1.0000000

  Atom        61          62          63          64          65          66          67          68          69          70
 IAtWgt=          12           1           1           1          12           1           1          12           1           1
 AtmWgt=  12.0000000   1.0078250   1.0078250   1.0078250  12.0000000   1.0078250   1.0078250  12.0000000   1.0078250   1.0078250
 NucSpn=           0           1           1           1           0           1           1           0           1           1
 AtZEff=  -0.0000000  -0.0000000  -0.0000000  -0.0000000  -0.0000000  -0.0000000  -0.0000000  -0.0000000  -0.0000000  -0.0000000
 NQMom=    0.0000000   0.0000000   0.0000000   0.0000000   0.0000000   0.0000000   0.0000000   0.0000000   0.0000000   0.0000000
 NMagM=    0.0000000   2.7928460   2.7928460   2.7928460   0.0000000   2.7928460   2.7928460   0.0000000   2.7928460   2.7928460
 AtZNuc=   6.0000000   1.0000000   1.0000000   1.0000000   6.0000000   1.0000000   1.0000000   6.0000000   1.0000000   1.0000000

  Atom        71          72          73          74          75          76          77
 IAtWgt=           1          12           1           1          12           1           1
 AtmWgt=   1.0078250  12.0000000   1.0078250   1.0078250  12.0000000   1.0078250   1.0078250
 NucSpn=           1           0           1           1           0           1           1
 AtZEff=  -0.0000000  -0.0000000  -0.0000000  -0.0000000  -0.0000000  -0.0000000  -0.0000000
 NQMom=    0.0000000   0.0000000   0.0000000   0.0000000   0.0000000   0.0000000   0.0000000
 NMagM=    2.7928460   0.0000000   2.7928460   2.7928460   0.0000000   2.7928460   2.7928460
 AtZNuc=   1.0000000   6.0000000   1.0000000   1.0000000   6.0000000   1.0000000   1.0000000
 Leave Link  101 at Thu Feb  7 14:48:01 2019, MaxMem=   104857600 cpu:               5.7 elap:               0.3
 (Enter /home/xinyan/g16/l103.exe)

 GradGradGradGradGradGradGradGradGradGradGradGradGradGradGradGradGradGrad
 Berny optimization.
 Initialization pass.
 Trust Radius=3.00D-01 FncErr=1.00D-07 GrdErr=1.00D-07 EigMax=2.50D+02 EigMin=1.00D-04
 Number of steps in this run=      2 maximum allowed number of steps=      2.
 GradGradGradGradGradGradGradGradGradGradGradGradGradGradGradGradGradGrad

 Leave Link  103 at Thu Feb  7 14:48:01 2019, MaxMem=   104857600 cpu:               1.6 elap:               0.1
 (Enter /home/xinyan/g16/l202.exe)
 Stoichiometry    C27H41N3O5S
 Framework group  C1[X(C27H41N3O5S)]
 Deg. of freedom   225
 Full point group                 C1      NOp   1
 Largest Abelian subgroup         C1      NOp   1
 Largest concise Abelian subgroup C1      NOp   1
                         Standard orientation:                         
 ---------------------------------------------------------------------
 Center     Atomic      Atomic             Coordinates (Angstroms)
 Number     Number       Type             X           Y           Z
 ---------------------------------------------------------------------
      1          6           0       -4.783358    0.435233   -0.524890
      2          6           0       -4.981403   -0.854678   -1.326697
      3          6           0       -3.659839   -1.317350   -1.952675
      4          6           0       -2.640884   -1.528824   -0.839047
      5          6           0       -2.397839   -0.214131   -0.053387
      6          6           0       -3.715428    0.270729    0.561258
      7          1           0       -3.791415   -2.240905   -2.526515
      8          1           0       -5.363660   -1.644537   -0.666802
      9          1           0       -5.728252   -0.705544   -2.112759
     10          1           0       -4.476984    1.237726   -1.208574
     11          1           0       -5.730448    0.743837   -0.070432
     12          1           0       -3.017595   -2.285148   -0.143698
     13          1           0       -2.081267    0.540094   -0.785185
     14          1           0       -4.055885   -0.446787    1.315402
     15          1           0       -3.527052    1.227669    1.059595
     16          1           0       -3.313825   -0.537385   -2.644387
     17          7           0       -1.322245   -2.017667   -1.293268
     18          6           0       -0.638689   -1.335722   -2.250800
     19          6           0       -0.623901   -2.810617   -0.437098
     20          6           0        0.717163   -1.386483   -2.350537
     21          1           0       -1.233626   -0.716165   -2.910573
     22          6           0        0.733438   -2.896822   -0.461424
     23          1           0       -1.212365   -3.316053    0.321047
     24          6           0        1.473101   -2.080707   -1.358615
     25          1           0        1.205684   -0.817101   -3.129586
     26          1           0        1.220834   -3.488177    0.300602
     27          7           0        2.794288   -1.972379   -1.277442
     28          6           0        3.525731   -2.421362   -0.082734
     29          1           0        3.411873   -3.499751    0.057591
     30          1           0        3.127156   -1.876207    0.785561
     31          6           0        3.519669   -0.901603   -1.975014
     32          1           0        3.765373   -1.218691   -2.995944
     33          1           0        2.888144   -0.009490   -2.000275
     34          7           0       -1.275326   -0.313330    0.866210
     35         16           0       -1.324042   -1.161279    2.257791
     36          8           0       -2.526520   -2.000428    2.244314
     37          8           0       -0.032284   -1.826468    2.447212
     38          6           0       -0.598650    2.686683    0.029911
     39          6           0       -0.126178    2.197857   -1.198402
     40          6           0       -0.909048    2.288437   -2.347789
     41          6           0       -2.181019    2.859836   -2.304325
     42          6           0       -2.663594    3.343630   -1.091512
     43          6           0       -1.874519    3.257460    0.055847
     44          1           0        0.833550    1.693844   -1.221726
     45          1           0       -0.515506    1.915240   -3.291132
     46          1           0       -2.784908    2.933419   -3.204604
     47          1           0       -3.651154    3.793564   -1.036520
     48          1           0       -2.259515    3.649258    0.995410
     49          8           0        0.707040    1.546452    1.885657
     50          1           0       -0.295054   -0.065769    0.552305
     51          6           0        1.853434    0.822714    1.249255
     52          8           0        1.456537    0.214735    0.150935
     53          8           0        2.237516   -0.059585    2.287880
     54          1           0        1.544251   -0.744527    2.307719
     55          6           0        3.049307    1.803239    1.133883
     56          1           0        2.995957    2.519421    1.964648
     57          1           0        3.947889    1.203013    1.324053
     58          6           0        0.239132    2.735107    1.311639
     59          1           0       -0.394550    3.196485    2.080383
     60          1           0        1.071268    3.436017    1.147517
     61          6           0       -1.473837    0.050606    3.549591
     62          1           0       -0.605063    0.707340    3.450511
     63          1           0       -2.407393    0.595280    3.398057
     64          1           0       -1.481947   -0.479831    4.503216
     65          6           0        3.225958    2.538711   -0.191409
     66          1           0        3.270068    1.806513   -1.005678
     67          1           0        2.361228    3.173397   -0.415676
     68          6           0        4.489252    3.398141   -0.192765
     69          1           0        4.628380    3.916248   -1.146692
     70          1           0        4.443387    4.156234    0.597025
     71          1           0        5.379580    2.786792   -0.006047
     72          6           0        4.961289   -2.011366   -0.390928
     73          1           0        5.562238   -1.920369    0.515633
     74          1           0        5.432298   -2.748635   -1.050418
     75          6           0        4.768225   -0.677718   -1.116572
     76          1           0        4.550621    0.101958   -0.382158
     77          1           0        5.631936   -0.371808   -1.710618
 ---------------------------------------------------------------------
 Rotational constants (GHZ):           0.1543615           0.1010597           0.0907950
 Leave Link  202 at Thu Feb  7 14:48:01 2019, MaxMem=   104857600 cpu:               2.3 elap:               0.1
 (Enter /home/xinyan/g16/l301.exe)
 Standard basis: 6-31G(d) (6D, 7F)
 Ernie: Thresh=  0.10000D-02 Tol=  0.10000D-05 Strict=F.
 There are   626 symmetry adapted cartesian basis functions of A   symmetry.
 There are   626 symmetry adapted basis functions of A   symmetry.
   626 basis functions,  1196 primitive gaussians,   626 cartesian basis functions
   140 alpha electrons      140 beta electrons
       nuclear repulsion energy      4991.2663621554 Hartrees.
 IExCor= 4336 DFT=T Ex+Corr=M062X ExCW=0 ScaHFX=  0.540000
 ScaDFX=  1.000000  1.000000  1.000000  1.000000 ScalE2=  1.000000  1.000000
 IRadAn=      5 IRanWt=     -1 IRanGd=            0 ICorTp=0 IEmpDi=131
 NAtoms=   77 NActive=   77 NUniq=   77 SFac= 1.00D+00 NAtFMM=   60 NAOKFM=T Big=T
 Integral buffers will be    131072 words long.
 Raffenetti 2 integral format.
 Two-electron integral symmetry is turned on.
 R6Disp:  Grimme-D3 Dispersion energy=       -0.0108361451 Hartrees.
 Nuclear repulsion after empirical dispersion term =     4991.2555260103 Hartrees.
 Leave Link  301 at Thu Feb  7 14:48:02 2019, MaxMem=   104857600 cpu:               3.0 elap:               0.2
 (Enter /home/xinyan/g16/l302.exe)
 NPDir=0 NMtPBC=     1 NCelOv=     1 NCel=       1 NClECP=     1 NCelD=      1
         NCelK=      1 NCelE2=     1 NClLst=     1 CellRange=     0.0.
 One-electron integrals computed using PRISM.
 One-electron integral symmetry used in STVInt
 PrsmSu:  requested number of processors reduced to:  23 ShMem   1 Linda.
 NBasis=   626 RedAO= T EigKep=  4.44D-04  NBF=   626
 NBsUse=   626 1.00D-06 EigRej= -1.00D+00 NBFU=   626
 Precomputing XC quadrature grid using
 IXCGrd= 4 IRadAn=           5 IRanWt=          -1 IRanGd=           0 AccXCQ= 0.00D+00.
 Generated NRdTot=       0 NPtTot=           0 NUsed=           0 NTot=          32
 NSgBfM=   621   621   621   621   621 MxSgAt=    77 MxSgA2=    77.
 Leave Link  302 at Thu Feb  7 14:48:06 2019, MaxMem=   104857600 cpu:              96.0 elap:               4.2
 (Enter /home/xinyan/g16/l303.exe)
 DipDrv:  MaxL=1.
 Leave Link  303 at Thu Feb  7 14:48:06 2019, MaxMem=   104857600 cpu:               5.8 elap:               0.3
 (Enter /home/xinyan/g16/l401.exe)
 ExpMin= 1.17D-01 ExpMax= 2.19D+04 ExpMxC= 3.30D+03 IAcc=3 IRadAn=         5 AccDes= 0.00D+00
 Harris functional with IExCor= 1009 and IRadAn=       5 diagonalized for initial guess.
 HarFok:  IExCor= 1009 AccDes= 0.00D+00 IRadAn=         5 IDoV= 1 UseB2=F ITyADJ=14
 ICtDFT=  3500011 ScaDFX=  1.000000  1.000000  1.000000  1.000000
 FoFCou: FMM=F IPFlag=           0 FMFlag=      100000 FMFlg1=        2001
         NFxFlg=           0 DoJE=T BraDBF=F KetDBF=T FulRan=T
         wScrn=  0.000000 ICntrl=       500 IOpCl=  0 I1Cent=   200000004 NGrid=           0
         NMat0=    1 NMatS0=      1 NMatT0=    0 NMatD0=    1 NMtDS0=    0 NMtDT0=    0
 Petite list used in FoFCou.
 Harris En= -1990.52938137139    
 JPrj=0 DoOrth=F DoCkMO=F.
 Leave Link  401 at Thu Feb  7 14:48:10 2019, MaxMem=   104857600 cpu:             100.3 elap:               4.2
 (Enter /home/xinyan/g16/l502.exe)
 Integral symmetry usage will be decided dynamically.
 Closed shell SCF:
 Using DIIS extrapolation, IDIIS=  1040.
 NGot=   104857600 LenX=   104051656 LenY=   103659154
 Requested convergence on RMS density matrix=1.00D-08 within 128 cycles.
 Requested convergence on MAX density matrix=1.00D-06.
 Requested convergence on             energy=1.00D-06.
 No special actions if energy rises.
 Fock matrices will be formed incrementally for  20 cycles.
 Integral accuracy reduced to 1.0D-05 until final iterations.

 Cycle   1  Pass 0  IDiag  1:
 FoFJK:  IHMeth= 1 ICntrl=       0 DoSepK=F KAlg= 0 I1Cent=           0 FoldK=F
 IRaf= 990000000 NMat=       1 IRICut=       1 DoRegI=T DoRafI=F ISym2E= 0 IDoP0=0 IntGTp=1.
 FoFCou: FMM=T IPFlag=           0 FMFlag=      100000 FMFlg1=        2001
         NFxFlg=           0 DoJE=F BraDBF=F KetDBF=F FulRan=T
         wScrn=  0.000000 ICntrl=         0 IOpCl=  0 I1Cent=           0 NGrid=           0
         NMat0=    1 NMatS0=      1 NMatT0=    0 NMatD0=    1 NMtDS0=    0 NMtDT0=    0
 Symmetry not used in FoFCou.
 FMM levels:  10  Number of levels for PrismC:   9
 E= -1990.30008011631    
 DIIS: error= 2.23D-02 at cycle   1 NSaved=   1.
 NSaved= 1 IEnMin= 1 EnMin= -1990.30008011631     IErMin= 1 ErrMin= 2.23D-02
 ErrMax= 2.23D-02  0.00D+00 EMaxC= 1.00D-01 BMatC= 1.24D+00 BMatP= 1.24D+00
 IDIUse=3 WtCom= 7.77D-01 WtEn= 2.23D-01
 Coeff-Com:  0.100D+01
 Coeff-En:   0.100D+01
 Coeff:      0.100D+01
 Gap=     0.368 Goal=   None    Shift=    0.000
 GapD=    0.368 DampG=1.000 DampE=0.500 DampFc=0.5000 IDamp=-1.
 Damping current iteration by 5.00D-01
 RMSDP=3.44D-03 MaxDP=3.46D-01              OVMax= 1.95D-01

 Cycle   2  Pass 0  IDiag  1:
 RMSU=  1.71D-03    CP:  9.88D-01
 E= -1990.81271142454     Delta-E=       -0.512631308235 Rises=F Damp=T
 DIIS: error= 7.52D-03 at cycle   2 NSaved=   2.
 NSaved= 2 IEnMin= 2 EnMin= -1990.81271142454     IErMin= 2 ErrMin= 7.52D-03
 ErrMax= 7.52D-03  0.00D+00 EMaxC= 1.00D-01 BMatC= 9.27D-02 BMatP= 1.24D+00
 IDIUse=3 WtCom= 9.25D-01 WtEn= 7.52D-02
 Coeff-Com: -0.289D-01 0.103D+01
 Coeff-En:   0.000D+00 0.100D+01
 Coeff:     -0.267D-01 0.103D+01
 Gap=     0.261 Goal=   None    Shift=    0.000
 RMSDP=8.54D-04 MaxDP=7.79D-02 DE=-5.13D-01 OVMax= 1.15D-01

 Cycle   3  Pass 0  IDiag  1:
 RMSU=  8.44D-04    CP:  9.81D-01  9.47D-01
 E= -1991.31766834668     Delta-E=       -0.504956922137 Rises=F Damp=F
 DIIS: error= 6.37D-03 at cycle   3 NSaved=   3.
 NSaved= 3 IEnMin= 3 EnMin= -1991.31766834668     IErMin= 3 ErrMin= 6.37D-03
 ErrMax= 6.37D-03  0.00D+00 EMaxC= 1.00D-01 BMatC= 4.92D-02 BMatP= 9.27D-02
 IDIUse=3 WtCom= 9.36D-01 WtEn= 6.37D-02
 Coeff-Com: -0.712D-01 0.440D+00 0.631D+00
 Coeff-En:   0.000D+00 0.000D+00 0.100D+01
 Coeff:     -0.666D-01 0.412D+00 0.655D+00
 Gap=     0.246 Goal=   None    Shift=    0.000
 RMSDP=5.09D-04 MaxDP=3.72D-02 DE=-5.05D-01 OVMax= 5.98D-02

 Cycle   4  Pass 0  IDiag  1:
 RMSU=  3.37D-04    CP:  9.84D-01  1.05D+00  6.04D-01
 E= -1991.34797344941     Delta-E=       -0.030305102731 Rises=F Damp=F
 DIIS: error= 3.91D-03 at cycle   4 NSaved=   4.
 NSaved= 4 IEnMin= 4 EnMin= -1991.34797344941     IErMin= 4 ErrMin= 3.91D-03
 ErrMax= 3.91D-03  0.00D+00 EMaxC= 1.00D-01 BMatC= 1.19D-02 BMatP= 4.92D-02
 IDIUse=3 WtCom= 9.61D-01 WtEn= 3.91D-02
 Coeff-Com: -0.286D-01 0.917D-01 0.358D+00 0.579D+00
 Coeff-En:   0.000D+00 0.000D+00 0.205D+00 0.795D+00
 Coeff:     -0.274D-01 0.882D-01 0.352D+00 0.588D+00
 Gap=     0.228 Goal=   None    Shift=    0.000
 RMSDP=2.04D-04 MaxDP=1.44D-02 DE=-3.03D-02 OVMax= 2.77D-02

 Cycle   5  Pass 0  IDiag  1:
 RMSU=  8.59D-05    CP:  9.83D-01  1.04D+00  7.33D-01  5.62D-01
 E= -1991.35786662694     Delta-E=       -0.009893177533 Rises=F Damp=F
 DIIS: error= 1.01D-03 at cycle   5 NSaved=   5.
 NSaved= 5 IEnMin= 5 EnMin= -1991.35786662694     IErMin= 5 ErrMin= 1.01D-03
 ErrMax= 1.01D-03  0.00D+00 EMaxC= 1.00D-01 BMatC= 5.81D-04 BMatP= 1.19D-02
 IDIUse=3 WtCom= 9.90D-01 WtEn= 1.01D-02
 Coeff-Com: -0.939D-02 0.216D-01 0.134D+00 0.285D+00 0.569D+00
 Coeff-En:   0.000D+00 0.000D+00 0.000D+00 0.000D+00 0.100D+01
 Coeff:     -0.930D-02 0.213D-01 0.132D+00 0.283D+00 0.573D+00
 Gap=     0.229 Goal=   None    Shift=    0.000
 RMSDP=5.07D-05 MaxDP=3.71D-03 DE=-9.89D-03 OVMax= 8.75D-03

 Cycle   6  Pass 0  IDiag  1:
 RMSU=  2.71D-05    CP:  9.83D-01  1.04D+00  7.31D-01  6.35D-01  5.92D-01
 E= -1991.35837157392     Delta-E=       -0.000504946978 Rises=F Damp=F
 DIIS: error= 3.28D-04 at cycle   6 NSaved=   6.
 NSaved= 6 IEnMin= 6 EnMin= -1991.35837157392     IErMin= 6 ErrMin= 3.28D-04
 ErrMax= 3.28D-04  0.00D+00 EMaxC= 1.00D-01 BMatC= 5.78D-05 BMatP= 5.81D-04
 IDIUse=3 WtCom= 9.97D-01 WtEn= 3.28D-03
 EnCoef did     3 forward-backward iterations
 Coeff-Com: -0.184D-02 0.195D-02 0.301D-01 0.827D-01 0.293D+00 0.594D+00
 Coeff-En:   0.000D+00 0.000D+00 0.000D+00 0.000D+00 0.122D-02 0.999D+00
 Coeff:     -0.184D-02 0.194D-02 0.300D-01 0.825D-01 0.292D+00 0.595D+00
 Gap=     0.229 Goal=   None    Shift=    0.000
 RMSDP=1.49D-05 MaxDP=8.80D-04 DE=-5.05D-04 OVMax= 2.36D-03

 Cycle   7  Pass 0  IDiag  1:
 RMSU=  9.33D-06    CP:  9.83D-01  1.04D+00  7.34D-01  6.35D-01  6.76D-01
                    CP:  6.76D-01
 E= -1991.35842610896     Delta-E=       -0.000054535035 Rises=F Damp=F
 DIIS: error= 5.10D-05 at cycle   7 NSaved=   7.
 NSaved= 7 IEnMin= 7 EnMin= -1991.35842610896     IErMin= 7 ErrMin= 5.10D-05
 ErrMax= 5.10D-05  0.00D+00 EMaxC= 1.00D-01 BMatC= 3.88D-06 BMatP= 5.78D-05
 IDIUse=1 WtCom= 1.00D+00 WtEn= 0.00D+00
 Coeff-Com:  0.166D-03-0.132D-02-0.125D-02 0.610D-02 0.719D-01 0.256D+00
 Coeff-Com:  0.668D+00
 Coeff:      0.166D-03-0.132D-02-0.125D-02 0.610D-02 0.719D-01 0.256D+00
 Coeff:      0.668D+00
 Gap=     0.229 Goal=   None    Shift=    0.000
 RMSDP=4.44D-06 MaxDP=2.40D-04 DE=-5.45D-05 OVMax= 5.12D-04

 Initial convergence to 1.0D-05 achieved.  Increase integral accuracy.
 Cycle   8  Pass 1  IDiag  1:
 E= -1991.35847950127     Delta-E=       -0.000053392311 Rises=F Damp=F
 DIIS: error= 2.18D-04 at cycle   1 NSaved=   1.
 NSaved= 1 IEnMin= 1 EnMin= -1991.35847950127     IErMin= 1 ErrMin= 2.18D-04
 ErrMax= 2.18D-04  0.00D+00 EMaxC= 1.00D-01 BMatC= 1.35D-05 BMatP= 1.35D-05
 IDIUse=3 WtCom= 9.98D-01 WtEn= 2.18D-03
 Coeff-Com:  0.100D+01
 Coeff-En:   0.100D+01
 Coeff:      0.100D+01
 Gap=     0.229 Goal=   None    Shift=    0.000
 RMSDP=4.44D-06 MaxDP=2.40D-04 DE=-5.34D-05 OVMax= 4.50D-04

 Cycle   9  Pass 1  IDiag  1:
 RMSU=  7.37D-05    CP:  1.00D+00
 E= -1991.35849158258     Delta-E=       -0.000012081316 Rises=F Damp=F
 DIIS: error= 2.17D-05 at cycle   2 NSaved=   2.
 NSaved= 2 IEnMin= 2 EnMin= -1991.35849158258     IErMin= 2 ErrMin= 2.17D-05
 ErrMax= 2.17D-05  0.00D+00 EMaxC= 1.00D-01 BMatC= 7.86D-07 BMatP= 1.35D-05
 IDIUse=1 WtCom= 1.00D+00 WtEn= 0.00D+00
 Coeff-Com:  0.678D-01 0.932D+00
 Coeff:      0.678D-01 0.932D+00
 Gap=     0.229 Goal=   None    Shift=    0.000
 RMSDP=3.85D-06 MaxDP=2.02D-04 DE=-1.21D-05 OVMax= 3.54D-04

 Cycle  10  Pass 1  IDiag  1:
 RMSU=  3.24D-06    CP:  1.00D+00  1.03D+00
 E= -1991.35849122755     Delta-E=        0.000000355028 Rises=F Damp=F
 DIIS: error= 3.57D-05 at cycle   3 NSaved=   3.
 NSaved= 3 IEnMin= 2 EnMin= -1991.35849158258     IErMin= 2 ErrMin= 2.17D-05
 ErrMax= 3.57D-05  0.00D+00 EMaxC= 1.00D-01 BMatC= 1.24D-06 BMatP= 7.86D-07
 IDIUse=1 WtCom= 1.00D+00 WtEn= 0.00D+00
 Coeff-Com: -0.144D-01 0.563D+00 0.452D+00
 Coeff:     -0.144D-01 0.563D+00 0.452D+00
 Gap=     0.229 Goal=   None    Shift=    0.000
 RMSDP=1.83D-06 MaxDP=1.21D-04 DE= 3.55D-07 OVMax= 2.19D-04

 Cycle  11  Pass 1  IDiag  1:
 RMSU=  6.20D-07    CP:  1.00D+00  1.03D+00  4.78D-01
 E= -1991.35849226580     Delta-E=       -0.000001038243 Rises=F Damp=F
 DIIS: error= 4.00D-06 at cycle   4 NSaved=   4.
 NSaved= 4 IEnMin= 4 EnMin= -1991.35849226580     IErMin= 4 ErrMin= 4.00D-06
 ErrMax= 4.00D-06  0.00D+00 EMaxC= 1.00D-01 BMatC= 1.11D-08 BMatP= 7.86D-07
 IDIUse=1 WtCom= 1.00D+00 WtEn= 0.00D+00
 Coeff-Com: -0.800D-02 0.257D+00 0.217D+00 0.534D+00
 Coeff:     -0.800D-02 0.257D+00 0.217D+00 0.534D+00
 Gap=     0.229 Goal=   None    Shift=    0.000
 RMSDP=2.17D-07 MaxDP=1.17D-05 DE=-1.04D-06 OVMax= 3.51D-05

 Cycle  12  Pass 1  IDiag  1:
 RMSU=  1.91D-07    CP:  1.00D+00  1.03D+00  4.96D-01  8.67D-01
 E= -1991.35849227612     Delta-E=       -0.000000010321 Rises=F Damp=F
 DIIS: error= 1.49D-06 at cycle   5 NSaved=   5.
 NSaved= 5 IEnMin= 5 EnMin= -1991.35849227612     IErMin= 5 ErrMin= 1.49D-06
 ErrMax= 1.49D-06  0.00D+00 EMaxC= 1.00D-01 BMatC= 9.33D-10 BMatP= 1.11D-08
 IDIUse=1 WtCom= 1.00D+00 WtEn= 0.00D+00
 Coeff-Com: -0.104D-02 0.197D-01 0.181D-01 0.215D+00 0.749D+00
 Coeff:     -0.104D-02 0.197D-01 0.181D-01 0.215D+00 0.749D+00
 Gap=     0.229 Goal=   None    Shift=    0.000
 RMSDP=8.38D-08 MaxDP=4.90D-06 DE=-1.03D-08 OVMax= 9.47D-06

 Cycle  13  Pass 1  IDiag  1:
 RMSU=  6.48D-08    CP:  1.00D+00  1.03D+00  4.97D-01  9.37D-01  8.62D-01
 E= -1991.35849227704     Delta-E=       -0.000000000921 Rises=F Damp=F
 DIIS: error= 4.85D-07 at cycle   6 NSaved=   6.
 NSaved= 6 IEnMin= 6 EnMin= -1991.35849227704     IErMin= 6 ErrMin= 4.85D-07
 ErrMax= 4.85D-07  0.00D+00 EMaxC= 1.00D-01 BMatC= 2.39D-10 BMatP= 9.33D-10
 IDIUse=1 WtCom= 1.00D+00 WtEn= 0.00D+00
 Coeff-Com:  0.744D-03-0.313D-01-0.262D-01 0.375D-01 0.411D+00 0.608D+00
 Coeff:      0.744D-03-0.313D-01-0.262D-01 0.375D-01 0.411D+00 0.608D+00
 Gap=     0.229 Goal=   None    Shift=    0.000
 RMSDP=3.51D-08 MaxDP=1.78D-06 DE=-9.21D-10 OVMax= 5.44D-06

 Cycle  14  Pass 1  IDiag  1:
 RMSU=  2.48D-08    CP:  1.00D+00  1.03D+00  4.98D-01  9.57D-01  9.45D-01
                    CP:  7.86D-01
 E= -1991.35849227731     Delta-E=       -0.000000000267 Rises=F Damp=F
 DIIS: error= 1.53D-07 at cycle   7 NSaved=   7.
 NSaved= 7 IEnMin= 7 EnMin= -1991.35849227731     IErMin= 7 ErrMin= 1.53D-07
 ErrMax= 1.53D-07  0.00D+00 EMaxC= 1.00D-01 BMatC= 1.60D-11 BMatP= 2.39D-10
 IDIUse=1 WtCom= 1.00D+00 WtEn= 0.00D+00
 Coeff-Com:  0.405D-03-0.150D-01-0.129D-01 0.368D-03 0.110D+00 0.265D+00
 Coeff-Com:  0.652D+00
 Coeff:      0.405D-03-0.150D-01-0.129D-01 0.368D-03 0.110D+00 0.265D+00
 Coeff:      0.652D+00
 Gap=     0.229 Goal=   None    Shift=    0.000
 RMSDP=9.38D-09 MaxDP=5.00D-07 DE=-2.67D-10 OVMax= 1.46D-06

 SCF Done:  E(RM062X) =  -1991.35849228     A.U. after   14 cycles
            NFock= 14  Conv=0.94D-08     -V/T= 2.0076
 KE= 1.976417955107D+03 PE=-1.463483506171D+04 EE= 5.675803088315D+03
 Leave Link  502 at Thu Feb  7 14:50:41 2019, MaxMem=   104857600 cpu:            3600.1 elap:             150.3
 (Enter /home/xinyan/g16/l601.exe)
 Copying SCF densities to generalized density rwf, IOpCl= 0 IROHF=0.

 **********************************************************************

            Population analysis using the SCF density.

 **********************************************************************

 Orbital symmetries:
       Occupied  (A) (A) (A) (A) (A) (A) (A) (A) (A) (A) (A) (A)
                 (A) (A) (A) (A) (A) (A) (A) (A) (A) (A) (A) (A)
                 (A) (A) (A) (A) (A) (A) (A) (A) (A) (A) (A) (A)
                 (A) (A) (A) (A) (A) (A) (A) (A) (A) (A) (A) (A)
                 (A) (A) (A) (A) (A) (A) (A) (A) (A) (A) (A) (A)
                 (A) (A) (A) (A) (A) (A) (A) (A) (A) (A) (A) (A)
                 (A) (A) (A) (A) (A) (A) (A) (A) (A) (A) (A) (A)
                 (A) (A) (A) (A) (A) (A) (A) (A) (A) (A) (A) (A)
                 (A) (A) (A) (A) (A) (A) (A) (A) (A) (A) (A) (A)
                 (A) (A) (A) (A) (A) (A) (A) (A) (A) (A) (A) (A)
                 (A) (A) (A) (A) (A) (A) (A) (A) (A) (A) (A) (A)
                 (A) (A) (A) (A) (A) (A) (A) (A)
       Virtual   (A) (A) (A) (A) (A) (A) (A) (A) (A) (A) (A) (A)
                 (A) (A) (A) (A) (A) (A) (A) (A) (A) (A) (A) (A)
                 (A) (A) (A) (A) (A) (A) (A) (A) (A) (A) (A) (A)
                 (A) (A) (A) (A) (A) (A) (A) (A) (A) (A) (A) (A)
                 (A) (A) (A) (A) (A) (A) (A) (A) (A) (A) (A) (A)
                 (A) (A) (A) (A) (A) (A) (A) (A) (A) (A) (A) (A)
                 (A) (A) (A) (A) (A) (A) (A) (A) (A) (A) (A) (A)
                 (A) (A) (A) (A) (A) (A) (A) (A) (A) (A) (A) (A)
                 (A) (A) (A) (A) (A) (A) (A) (A) (A) (A) (A) (A)
                 (A) (A) (A) (A) (A) (A) (A) (A) (A) (A) (A) (A)
                 (A) (A) (A) (A) (A) (A) (A) (A) (A) (A) (A) (A)
                 (A) (A) (A) (A) (A) (A) (A) (A) (A) (A) (A) (A)
                 (A) (A) (A) (A) (A) (A) (A) (A) (A) (A) (A) (A)
                 (A) (A) (A) (A) (A) (A) (A) (A) (A) (A) (A) (A)
                 (A) (A) (A) (A) (A) (A) (A) (A) (A) (A) (A) (A)
                 (A) (A) (A) (A) (A) (A) (A) (A) (A) (A) (A) (A)
                 (A) (A) (A) (A) (A) (A) (A) (A) (A) (A) (A) (A)
                 (A) (A) (A) (A) (A) (A) (A) (A) (A) (A) (A) (A)
                 (A) (A) (A) (A) (A) (A) (A) (A) (A) (A) (A) (A)
                 (A) (A) (A) (A) (A) (A) (A) (A) (A) (A) (A) (A)
                 (A) (A) (A) (A) (A) (A) (A) (A) (A) (A) (A) (A)
                 (A) (A) (A) (A) (A) (A) (A) (A) (A) (A) (A) (A)
                 (A) (A) (A) (A) (A) (A) (A) (A) (A) (A) (A) (A)
                 (A) (A) (A) (A) (A) (A) (A) (A) (A) (A) (A) (A)
                 (A) (A) (A) (A) (A) (A) (A) (A) (A) (A) (A) (A)
                 (A) (A) (A) (A) (A) (A) (A) (A) (A) (A) (A) (A)
                 (A) (A) (A) (A) (A) (A) (A) (A) (A) (A) (A) (A)
                 (A) (A) (A) (A) (A) (A) (A) (A) (A) (A) (A) (A)
                 (A) (A) (A) (A) (A) (A) (A) (A) (A) (A) (A) (A)
                 (A) (A) (A) (A) (A) (A) (A) (A) (A) (A) (A) (A)
                 (A) (A) (A) (A) (A) (A) (A) (A) (A) (A) (A) (A)
                 (A) (A) (A) (A) (A) (A) (A) (A) (A) (A) (A) (A)
                 (A) (A) (A) (A) (A) (A) (A) (A) (A) (A) (A) (A)
                 (A) (A) (A) (A) (A) (A) (A) (A) (A) (A) (A) (A)
                 (A) (A) (A) (A) (A) (A) (A) (A) (A) (A) (A) (A)
                 (A) (A) (A) (A) (A) (A) (A) (A) (A) (A) (A) (A)
                 (A) (A) (A) (A) (A) (A) (A) (A) (A) (A) (A) (A)
                 (A) (A) (A) (A) (A) (A) (A) (A) (A) (A) (A) (A)
                 (A) (A) (A) (A) (A) (A) (A) (A) (A) (A) (A) (A)
                 (A) (A) (A) (A) (A) (A) (A) (A) (A) (A) (A) (A)
                 (A) (A) (A) (A) (A) (A)
 The electronic state is 1-A.
 Alpha  occ. eigenvalues --  -90.14188 -19.61792 -19.61769 -19.58669 -19.56704
 Alpha  occ. eigenvalues --  -19.51255 -14.85174 -14.80447 -14.75780 -10.63421
 Alpha  occ. eigenvalues --  -10.62789 -10.62246 -10.62199 -10.60735 -10.59360
 Alpha  occ. eigenvalues --  -10.58449 -10.58001 -10.57952 -10.57164 -10.56885
 Alpha  occ. eigenvalues --  -10.56695 -10.55663 -10.55606 -10.55112 -10.54840
 Alpha  occ. eigenvalues --  -10.54830 -10.54795 -10.54725 -10.54574 -10.54398
 Alpha  occ. eigenvalues --  -10.54329 -10.54321 -10.53071 -10.51507 -10.51460
 Alpha  occ. eigenvalues --  -10.49696  -8.45165  -6.37382  -6.37359  -6.37201
 Alpha  occ. eigenvalues --   -1.22011  -1.13588  -1.13478  -1.10266  -1.09346
 Alpha  occ. eigenvalues --   -1.05863  -1.01754  -0.99327  -0.95750  -0.94989
 Alpha  occ. eigenvalues --   -0.93498  -0.90304  -0.88756  -0.85913  -0.85772
 Alpha  occ. eigenvalues --   -0.84820  -0.84712  -0.84233  -0.83055  -0.82702
 Alpha  occ. eigenvalues --   -0.76670  -0.76271  -0.75833  -0.74354  -0.72800
 Alpha  occ. eigenvalues --   -0.71652  -0.68329  -0.68229  -0.67938  -0.67211
 Alpha  occ. eigenvalues --   -0.66742  -0.65232  -0.64864  -0.63528  -0.60552
 Alpha  occ. eigenvalues --   -0.60404  -0.59778  -0.59034  -0.57806  -0.57597
 Alpha  occ. eigenvalues --   -0.57181  -0.56440  -0.55787  -0.55169  -0.54198
 Alpha  occ. eigenvalues --   -0.53551  -0.52656  -0.52460  -0.52439  -0.51901
 Alpha  occ. eigenvalues --   -0.51551  -0.51023  -0.50749  -0.49880  -0.49554
 Alpha  occ. eigenvalues --   -0.49158  -0.48838  -0.48207  -0.48138  -0.48010
 Alpha  occ. eigenvalues --   -0.47673  -0.47466  -0.46914  -0.46433  -0.46104
 Alpha  occ. eigenvalues --   -0.44881  -0.44737  -0.44146  -0.43868  -0.43263
 Alpha  occ. eigenvalues --   -0.42516  -0.42137  -0.41403  -0.41315  -0.41112
 Alpha  occ. eigenvalues --   -0.40902  -0.40483  -0.39993  -0.39810  -0.39311
 Alpha  occ. eigenvalues --   -0.39255  -0.39072  -0.38439  -0.37965  -0.37599
 Alpha  occ. eigenvalues --   -0.37391  -0.36741  -0.36563  -0.35747  -0.34906
 Alpha  occ. eigenvalues --   -0.34389  -0.33970  -0.31671  -0.31104  -0.29770
 Alpha  occ. eigenvalues --   -0.28875  -0.28601  -0.27650  -0.24842  -0.24411
 Alpha virt. eigenvalues --   -0.01525   0.00401   0.03552   0.03756   0.10138
 Alpha virt. eigenvalues --    0.10989   0.11651   0.12202   0.13173   0.13507
 Alpha virt. eigenvalues --    0.14214   0.14593   0.14758   0.15227   0.15600
 Alpha virt. eigenvalues --    0.16049   0.16852   0.16955   0.17209   0.17677
 Alpha virt. eigenvalues --    0.18051   0.18323   0.18483   0.18822   0.18939
 Alpha virt. eigenvalues --    0.19303   0.19737   0.19919   0.20116   0.20279
 Alpha virt. eigenvalues --    0.20644   0.20969   0.21065   0.21572   0.21663
 Alpha virt. eigenvalues --    0.22162   0.22548   0.22861   0.23429   0.23674
 Alpha virt. eigenvalues --    0.23876   0.24206   0.24539   0.24732   0.24936
 Alpha virt. eigenvalues --    0.25271   0.25510   0.25968   0.26357   0.26807
 Alpha virt. eigenvalues --    0.27086   0.27813   0.27861   0.28609   0.29007
 Alpha virt. eigenvalues --    0.29374   0.29557   0.29837   0.30788   0.30933
 Alpha virt. eigenvalues --    0.31326   0.31651   0.32214   0.32640   0.33117
 Alpha virt. eigenvalues --    0.33649   0.34576   0.35219   0.35486   0.35801
 Alpha virt. eigenvalues --    0.36529   0.37333   0.37727   0.38000   0.38848
 Alpha virt. eigenvalues --    0.39944   0.40351   0.40762   0.42815   0.43258
 Alpha virt. eigenvalues --    0.44463   0.44745   0.46969   0.48082   0.48819
 Alpha virt. eigenvalues --    0.49830   0.51203   0.52711   0.53426   0.54956
 Alpha virt. eigenvalues --    0.55150   0.55350   0.55996   0.56543   0.56887
 Alpha virt. eigenvalues --    0.57524   0.58315   0.58623   0.58725   0.59448
 Alpha virt. eigenvalues --    0.59521   0.59931   0.60363   0.60471   0.60554
 Alpha virt. eigenvalues --    0.61170   0.61423   0.62386   0.62628   0.62880
 Alpha virt. eigenvalues --    0.63776   0.64056   0.64580   0.65047   0.65576
 Alpha virt. eigenvalues --    0.66075   0.66639   0.66963   0.67454   0.67907
 Alpha virt. eigenvalues --    0.68400   0.69013   0.69103   0.69960   0.70638
 Alpha virt. eigenvalues --    0.71049   0.71460   0.71752   0.72967   0.73503
 Alpha virt. eigenvalues --    0.73584   0.74242   0.74724   0.74930   0.75749
 Alpha virt. eigenvalues --    0.76610   0.77301   0.77802   0.78661   0.79002
 Alpha virt. eigenvalues --    0.79494   0.79832   0.80217   0.81003   0.81349
 Alpha virt. eigenvalues --    0.81724   0.82081   0.82815   0.83855   0.84529
 Alpha virt. eigenvalues --    0.84866   0.85350   0.85718   0.86119   0.87134
 Alpha virt. eigenvalues --    0.87724   0.88438   0.89014   0.89443   0.89579
 Alpha virt. eigenvalues --    0.89738   0.90132   0.90557   0.91016   0.91254
 Alpha virt. eigenvalues --    0.91712   0.92273   0.92824   0.93010   0.93252
 Alpha virt. eigenvalues --    0.93632   0.94243   0.94734   0.95086   0.95354
 Alpha virt. eigenvalues --    0.95843   0.96109   0.96635   0.96729   0.97034
 Alpha virt. eigenvalues --    0.97299   0.97929   0.98099   0.98396   0.98442
 Alpha virt. eigenvalues --    0.99152   0.99606   0.99779   1.00495   1.00812
 Alpha virt. eigenvalues --    1.01337   1.01893   1.02208   1.02750   1.03028
 Alpha virt. eigenvalues --    1.03192   1.04214   1.04597   1.04641   1.05670
 Alpha virt. eigenvalues --    1.05919   1.07009   1.07627   1.08317   1.09099
 Alpha virt. eigenvalues --    1.10298   1.10708   1.11599   1.11759   1.11865
 Alpha virt. eigenvalues --    1.13360   1.13599   1.14614   1.15080   1.15581
 Alpha virt. eigenvalues --    1.16894   1.17741   1.18396   1.18573   1.18925
 Alpha virt. eigenvalues --    1.19901   1.20919   1.21138   1.21721   1.22097
 Alpha virt. eigenvalues --    1.22703   1.23637   1.24104   1.24696   1.25621
 Alpha virt. eigenvalues --    1.25996   1.27972   1.28925   1.29413   1.30536
 Alpha virt. eigenvalues --    1.31396   1.31510   1.32132   1.32580   1.33725
 Alpha virt. eigenvalues --    1.33996   1.34400   1.35116   1.36204   1.37058
 Alpha virt. eigenvalues --    1.37322   1.38388   1.39161   1.40680   1.41326
 Alpha virt. eigenvalues --    1.41771   1.42335   1.43754   1.44565   1.46223
 Alpha virt. eigenvalues --    1.47402   1.47937   1.48430   1.49184   1.49797
 Alpha virt. eigenvalues --    1.51054   1.51911   1.52445   1.52810   1.54465
 Alpha virt. eigenvalues --    1.54832   1.55093   1.55983   1.57156   1.57222
 Alpha virt. eigenvalues --    1.57461   1.58527   1.60540   1.61039   1.61234
 Alpha virt. eigenvalues --    1.61916   1.62841   1.63666   1.65607   1.67436
 Alpha virt. eigenvalues --    1.69022   1.69674   1.70240   1.72171   1.72725
 Alpha virt. eigenvalues --    1.74289   1.74733   1.75866   1.77256   1.77899
 Alpha virt. eigenvalues --    1.78545   1.79450   1.80418   1.80930   1.81874
 Alpha virt. eigenvalues --    1.84360   1.84603   1.85171   1.85789   1.85886
 Alpha virt. eigenvalues --    1.86314   1.87057   1.87593   1.87951   1.88997
 Alpha virt. eigenvalues --    1.89945   1.90074   1.90363   1.90957   1.91898
 Alpha virt. eigenvalues --    1.92712   1.93803   1.94220   1.94687   1.94802
 Alpha virt. eigenvalues --    1.95421   1.95910   1.96482   1.97069   1.97751
 Alpha virt. eigenvalues --    1.98651   1.99079   1.99251   2.00013   2.00900
 Alpha virt. eigenvalues --    2.01831   2.02166   2.02345   2.02734   2.04132
 Alpha virt. eigenvalues --    2.04514   2.06159   2.06314   2.06976   2.07403
 Alpha virt. eigenvalues --    2.07659   2.08464   2.08830   2.09218   2.09457
 Alpha virt. eigenvalues --    2.09880   2.10624   2.11795   2.11947   2.12900
 Alpha virt. eigenvalues --    2.12922   2.14242   2.14408   2.15236   2.15921
 Alpha virt. eigenvalues --    2.16277   2.16677   2.17177   2.18726   2.19078
 Alpha virt. eigenvalues --    2.19959   2.20341   2.20738   2.21518   2.22369
 Alpha virt. eigenvalues --    2.23162   2.23416   2.23640   2.23771   2.24589
 Alpha virt. eigenvalues --    2.25448   2.25889   2.26420   2.27473   2.28428
 Alpha virt. eigenvalues --    2.28954   2.30235   2.30842   2.30914   2.31606
 Alpha virt. eigenvalues --    2.32300   2.33981   2.34696   2.35187   2.35627
 Alpha virt. eigenvalues --    2.36070   2.37457   2.37628   2.38583   2.38734
 Alpha virt. eigenvalues --    2.39035   2.40326   2.40946   2.41522   2.42753
 Alpha virt. eigenvalues --    2.43325   2.44459   2.45388   2.46044   2.46999
 Alpha virt. eigenvalues --    2.49563   2.50634   2.51828   2.52250   2.52865
 Alpha virt. eigenvalues --    2.54295   2.54527   2.56101   2.57018   2.59952
 Alpha virt. eigenvalues --    2.60899   2.61842   2.62336   2.63158   2.63922
 Alpha virt. eigenvalues --    2.64677   2.64839   2.65737   2.67247   2.68327
 Alpha virt. eigenvalues --    2.68856   2.69602   2.70426   2.71694   2.72773
 Alpha virt. eigenvalues --    2.73583   2.74444   2.76260   2.76710   2.77511
 Alpha virt. eigenvalues --    2.79536   2.80233   2.80679   2.80788   2.81588
 Alpha virt. eigenvalues --    2.83471   2.85449   2.86187   2.87150   2.88374
 Alpha virt. eigenvalues --    2.89200   2.91020   2.92537   2.93949   2.96907
 Alpha virt. eigenvalues --    2.99674   3.00324   3.03141   3.05237   3.10569
 Alpha virt. eigenvalues --    3.14745   3.16359   3.23869   3.41296   3.42807
 Alpha virt. eigenvalues --    3.96665   4.02171   4.04817   4.09444   4.11003
 Alpha virt. eigenvalues --    4.15723   4.17170   4.18056   4.18709   4.19670
 Alpha virt. eigenvalues --    4.21108   4.23154   4.24486   4.26572   4.27529
 Alpha virt. eigenvalues --    4.29692   4.32673   4.33233   4.34668   4.35157
 Alpha virt. eigenvalues --    4.40010   4.40868   4.41907   4.43761   4.47528
 Alpha virt. eigenvalues --    4.49944   4.55752   4.58172   4.59235   4.61519
 Alpha virt. eigenvalues --    4.63955   4.66116   4.73748   4.75602   4.76851
 Alpha virt. eigenvalues --    4.80246
          Condensed to atoms (all electrons):
 Mulliken charges:
               1
     1  C   -0.306275
     2  C   -0.307130
     3  C   -0.309269
     4  C   -0.060183
     5  C    0.056688
     6  C   -0.311514
     7  H    0.173989
     8  H    0.162831
     9  H    0.165514
    10  H    0.151063
    11  H    0.163345
    12  H    0.209019
    13  H    0.173075
    14  H    0.193064
    15  H    0.163629
    16  H    0.154256
    17  N   -0.430600
    18  C    0.067439
    19  C    0.063722
    20  C   -0.201865
    21  H    0.206483
    22  C   -0.209141
    23  H    0.245287
    24  C    0.445975
    25  H    0.192021
    26  H    0.211549
    27  N   -0.526114
    28  C   -0.171090
    29  H    0.169765
    30  H    0.229849
    31  C   -0.154775
    32  H    0.165780
    33  H    0.205557
    34  N   -0.815680
    35  S    1.253374
    36  O   -0.612005
    37  O   -0.606503
    38  C    0.084879
    39  C   -0.184076
    40  C   -0.189726
    41  C   -0.171172
    42  C   -0.163705
    43  C   -0.212135
    44  H    0.211110
    45  H    0.140583
    46  H    0.154897
    47  H    0.158589
    48  H    0.152483
    49  O   -0.550899
    50  H    0.448641
    51  C    0.724879
    52  O   -0.721922
    53  O   -0.718015
    54  H    0.444743
    55  C   -0.338516
    56  H    0.148807
    57  H    0.151067
    58  C   -0.091351
    59  H    0.139935
    60  H    0.147642
    61  C   -0.663295
    62  H    0.273536
    63  H    0.196298
    64  H    0.217569
    65  C   -0.292814
    66  H    0.136109
    67  H    0.146258
    68  C   -0.473423
    69  H    0.148942
    70  H    0.154555
    71  H    0.144933
    72  C   -0.331888
    73  H    0.187183
    74  H    0.162975
    75  C   -0.343227
    76  H    0.197319
    77  H    0.171101
 Sum of Mulliken charges =  -0.00000
 Mulliken charges with hydrogens summed into heavy atoms:
               1
     1  C    0.008133
     2  C    0.021215
     3  C    0.018976
     4  C    0.148836
     5  C    0.229764
     6  C    0.045179
    17  N   -0.430600
    18  C    0.273922
    19  C    0.309009
    20  C   -0.009845
    22  C    0.002408
    24  C    0.445975
    27  N   -0.526114
    28  C    0.228524
    31  C    0.216562
    34  N   -0.367039
    35  S    1.253374
    36  O   -0.612005
    37  O   -0.606503
    38  C    0.084879
    39  C    0.027034
    40  C   -0.049143
    41  C   -0.016275
    42  C   -0.005116
    43  C   -0.059652
    49  O   -0.550899
    51  C    0.724879
    52  O   -0.721922
    53  O   -0.273272
    55  C   -0.038642
    58  C    0.196226
    61  C    0.024108
    65  C   -0.010447
    68  C   -0.024993
    72  C    0.018269
    75  C    0.025193
 Electronic spatial extent (au):  <R**2>=          14332.2861
 Charge=              0.0000 electrons
 Dipole moment (field-independent basis, Debye):
    X=             -2.5533    Y=             -1.9214    Z=             -6.3571  Tot=              7.1150
 Quadrupole moment (field-independent basis, Debye-Ang):
   XX=           -205.7168   YY=           -222.8155   ZZ=           -219.8995
   XY=            -12.3710   XZ=             -5.3199   YZ=             10.0292
 Traceless Quadrupole moment (field-independent basis, Debye-Ang):
   XX=             10.4271   YY=             -6.6716   ZZ=             -3.7556
   XY=            -12.3710   XZ=             -5.3199   YZ=             10.0292
 Octapole moment (field-independent basis, Debye-Ang**2):
  XXX=             14.3102  YYY=            -51.6386  ZZZ=             11.2626  XYY=              9.8877
  XXY=            -24.4168  XXZ=            -38.4628  XZZ=            -24.2766  YZZ=             13.0466
  YYZ=             17.9820  XYZ=            -19.2700
 Hexadecapole moment (field-independent basis, Debye-Ang**3):
 XXXX=          -9833.9479 YYYY=          -5433.2187 ZZZZ=          -3544.0200 XXXY=           -203.8609
 XXXZ=            -10.3107 YYYX=            -70.7500 YYYZ=             56.3784 ZZZX=           -105.4910
 ZZZY=             -7.3039 XXYY=          -2555.1810 XXZZ=          -2317.1733 YYZZ=          -1599.0750
 XXYZ=             46.7164 YYXZ=             51.0548 ZZXY=            -50.9669
 N-N= 4.991255526010D+03 E-N=-1.463483510330D+04  KE= 1.976417955107D+03
 No NMR shielding tensors so no spin-rotation constants.
 Leave Link  601 at Thu Feb  7 14:50:42 2019, MaxMem=   104857600 cpu:              24.0 elap:               1.1
 (Enter /home/xinyan/g16/l701.exe)
 ... and contract with generalized density number  0.
 Compute integral first derivatives.
 R6Disp: Adding Grimme-D3 dispersion energy 1st derivatives to the gradient.
 Leave Link  701 at Thu Feb  7 14:50:43 2019, MaxMem=   104857600 cpu:              19.8 elap:               0.9
 (Enter /home/xinyan/g16/l702.exe)
 L702 exits ... SP integral derivatives will be done elsewhere.
 Leave Link  702 at Thu Feb  7 14:50:43 2019, MaxMem=   104857600 cpu:               1.4 elap:               0.1
 (Enter /home/xinyan/g16/l703.exe)
 Integral derivatives from FoFJK, PRISM(SPDF).
 Compute integral first derivatives, UseDBF=F ICtDFT=           0.
 Calling FoFJK, ICntrl=      2127 FMM=T ISym2X=0 I1Cent= 0 IOpClX= 0 NMat=1 NMatS=1 NMatT=0.
 FoFJK:  IHMeth= 1 ICntrl=    2127 DoSepK=F KAlg= 0 I1Cent=           0 FoldK=F
 IRaf=         0 NMat=       1 IRICut=       1 DoRegI=T DoRafI=F ISym2E= 0 IDoP0=0 IntGTp=1.
 FoFCou: FMM=T IPFlag=           0 FMFlag=      100000 FMFlg1=        2001
         NFxFlg=           0 DoJE=F BraDBF=F KetDBF=F FulRan=T
         wScrn=  0.000000 ICntrl=      2127 IOpCl=  0 I1Cent=           0 NGrid=           0
         NMat0=    1 NMatS0=      1 NMatT0=    0 NMatD0=    1 NMtDS0=    0 NMtDT0=    0
 Symmetry not used in FoFCou.
 FMM levels:  10  Number of levels for PrismC:   9
 Leave Link  703 at Thu Feb  7 14:51:18 2019, MaxMem=   104857600 cpu:             832.9 elap:              35.6
 (Enter /home/xinyan/g16/l716.exe)
 Dipole        =-1.00455986D+00-7.55948159D-01-2.50105919D+00
 ***** Axes restored to original set *****
 -------------------------------------------------------------------
 Center     Atomic                   Forces (Hartrees/Bohr)
 Number     Number              X              Y              Z
 -------------------------------------------------------------------
      1        6          -0.000003718   -0.000019186   -0.000010959
      2        6           0.000028645    0.000005181    0.000014398
      3        6           0.000013385    0.000019584    0.000000356
      4        6           0.000035594    0.000011773   -0.000016827
      5        6           0.000004855    0.000002712   -0.000065895
      6        6          -0.000020319   -0.000003414    0.000020288
      7        1           0.000020451    0.000010456   -0.000023832
      8        1           0.000002866   -0.000003121   -0.000035049
      9        1           0.000012513    0.000005378   -0.000023950
     10        1           0.000009373    0.000035054   -0.000027054
     11        1           0.000003961   -0.000014083   -0.000009218
     12        1           0.000000501   -0.000040600    0.000026983
     13        1           0.000001839    0.000006677    0.000004498
     14        1          -0.000002615   -0.000029707   -0.000003263
     15        1           0.000005943   -0.000007099    0.000001155
     16        1           0.000009145    0.000006320   -0.000014884
     17        7           0.000013798    0.000033445   -0.000012553
     18        6           0.000016183   -0.000012141   -0.000008756
     19        6           0.000009136    0.000017625   -0.000000582
     20        6          -0.000004907   -0.000007634   -0.000016251
     21        1           0.000013857   -0.000001452   -0.000009343
     22        6           0.000000224   -0.000002130    0.000028744
     23        1           0.000001539    0.000002654    0.000003009
     24        6           0.000012167   -0.000020515    0.000006359
     25        1           0.000015858    0.000007478   -0.000008167
     26        1           0.000014950    0.000020499    0.000017869
     27        7           0.000017048    0.000032722    0.000011952
     28        6           0.000011431    0.000022379    0.000028897
     29        1           0.000009663    0.000027979    0.000034487
     30        1           0.000009269    0.000041161    0.000013594
     31        6           0.000006549   -0.000003578   -0.000019334
     32        1           0.000018613   -0.000011418    0.000005126
     33        1          -0.000005968    0.000030476    0.000024754
     34        7           0.000146787    0.000018538   -0.000070580
     35       16          -0.000001333   -0.000036666    0.000103212
     36        8           0.000022312   -0.000015830   -0.000072787
     37        8          -0.000021261    0.000013266   -0.000040054
     38        6          -0.000010740    0.000026944    0.000037890
     39        6          -0.000004438    0.000030643   -0.000000801
     40        6          -0.000033900    0.000022440    0.000026146
     41        6          -0.000014388    0.000006146    0.000006268
     42        6          -0.000038218    0.000004046    0.000068555
     43        6          -0.000030863    0.000010583    0.000042685
     44        1          -0.000022280    0.000021391   -0.000009953
     45        1          -0.000023766    0.000049513    0.000020747
     46        1          -0.000024518    0.000026744    0.000041902
     47        1          -0.000017977    0.000001393    0.000044050
     48        1          -0.000018802   -0.000008524    0.000020810
     49        8           0.000176843   -0.000130995   -0.000108582
     50        1          -0.000160701   -0.000062543    0.000012398
     51        6          -0.000247827    0.000139354    0.000189638
     52        8          -0.000099498   -0.000055495   -0.000033616
     53        8          -0.000277130   -0.000193938   -0.000018173
     54        1           0.000238694    0.000254754    0.000027428
     55        6           0.000235453    0.000262586    0.000211086
     56        1          -0.000046115   -0.000226322   -0.000242647
     57        1          -0.000028808    0.000002819   -0.000022999
     58        6           0.000017055    0.000000607    0.000060433
     59        1          -0.000006316    0.000038288    0.000004322
     60        1          -0.000016416   -0.000019053    0.000016897
     61        6          -0.000024481   -0.000002506    0.000030981
     62        1          -0.000022324   -0.000007609   -0.000023767
     63        1          -0.000032840   -0.000018023   -0.000012967
     64        1          -0.000021867   -0.000008988   -0.000006496
     65        6          -0.000199194    0.000264952   -0.000009134
     66        1          -0.000110398   -0.000001706   -0.000068463
     67        1           0.000238559   -0.000213457    0.000062691
     68        6          -0.000036837    0.000010999   -0.000003210
     69        1           0.000027550   -0.000099802   -0.000053617
     70        1           0.000102650   -0.000179483   -0.000135915
     71        1           0.000063445   -0.000227678   -0.000113912
     72        6           0.000003322    0.000040345    0.000016461
     73        1          -0.000005746    0.000047393    0.000023699
     74        1           0.000014286    0.000020922    0.000048604
     75        6          -0.000015860   -0.000017153    0.000020080
     76        1           0.000031994    0.000044691   -0.000021079
     77        1           0.000014060    0.000002941   -0.000004782
 -------------------------------------------------------------------
 Cartesian Forces:  Max     0.000277130 RMS     0.000073539
 Z-matrix is all fixed cartesians, so copy forces.
 Leave Link  716 at Thu Feb  7 14:51:18 2019, MaxMem=   104857600 cpu:               2.1 elap:               0.1
 (Enter /home/xinyan/g16/l103.exe)

 GradGradGradGradGradGradGradGradGradGradGradGradGradGradGradGradGradGrad
 Berny optimization.
 Search for a local minimum.
 Step number   1 out of a maximum of    2
 All quantities printed in internal units (Hartrees-Bohrs-Radians)
 Second derivative matrix not updated -- first step.
 ITU=  0
     Eigenvalues ---    0.00000   0.00000   0.00000   0.00000   0.00000
     Eigenvalues ---    0.00000   0.00006   0.00012   0.00018   0.00021
     Eigenvalues ---    0.00037   0.00038   0.00084   0.00095   0.00115
     Eigenvalues ---    0.00136   0.00141   0.00204   0.00234   0.00294
     Eigenvalues ---    0.00390   0.00406   0.00450   0.00498   0.00591
     Eigenvalues ---    0.00606   0.00617   0.00691   0.00709   0.00848
     Eigenvalues ---    0.00964   0.01124   0.01163   0.01469   0.01656
     Eigenvalues ---    0.01679   0.01888   0.01937   0.02043   0.02158
     Eigenvalues ---    0.02295   0.02304   0.02443   0.02535   0.02875
     Eigenvalues ---    0.02967   0.03070   0.03105   0.03218   0.03448
     Eigenvalues ---    0.03548   0.03715   0.03900   0.04200   0.04322
     Eigenvalues ---    0.04367   0.04805   0.04843   0.04872   0.04925
     Eigenvalues ---    0.05025   0.05069   0.05106   0.05112   0.05163
     Eigenvalues ---    0.05185   0.05265   0.05374   0.05469   0.05600
     Eigenvalues ---    0.05645   0.05667   0.05707   0.05743   0.05790
     Eigenvalues ---    0.06016   0.06153   0.06280   0.06512   0.06567
     Eigenvalues ---    0.06833   0.06851   0.06972   0.07028   0.07083
     Eigenvalues ---    0.07152   0.07247   0.07266   0.07329   0.07383
     Eigenvalues ---    0.07645   0.07798   0.07861   0.07956   0.08084
     Eigenvalues ---    0.08467   0.08560   0.08808   0.09023   0.09720
     Eigenvalues ---    0.09766   0.10161   0.10462   0.11256   0.11500
     Eigenvalues ---    0.11840   0.12126   0.12609   0.12854   0.12903
     Eigenvalues ---    0.12940   0.13029   0.13357   0.13671   0.13936
     Eigenvalues ---    0.14129   0.14427   0.14650   0.15644   0.15767
     Eigenvalues ---    0.16022   0.16109   0.16881   0.16944   0.16974
     Eigenvalues ---    0.17251   0.17304   0.17765   0.17881   0.19569
     Eigenvalues ---    0.19679   0.20336   0.20613   0.21582   0.21691
     Eigenvalues ---    0.23068   0.23355   0.23820   0.24800   0.26388
     Eigenvalues ---    0.27462   0.28610   0.29541   0.30052   0.30652
     Eigenvalues ---    0.31430   0.32264   0.34024   0.34768   0.36311
     Eigenvalues ---    0.36708   0.39436   0.39986   0.41215   0.43088
     Eigenvalues ---    0.43549   0.44549   0.48127   0.49026   0.50146
     Eigenvalues ---    0.52926   0.56799   0.57616   0.60158   0.64864
     Eigenvalues ---    0.65372   0.66336   0.67381   0.68229   0.68774
     Eigenvalues ---    0.70493   0.77628   0.78161   0.78396   0.81177
     Eigenvalues ---    0.82977   0.83331   0.85522   0.86557   0.87285
     Eigenvalues ---    0.87906   0.88678   0.90545   0.91308   0.93949
     Eigenvalues ---    0.94398   0.94771   0.94937   0.95633   0.96335
     Eigenvalues ---    0.97871   0.97946   0.99524   1.00368   1.00558
     Eigenvalues ---    1.00772   1.03891   1.04284   1.04558   1.06121
     Eigenvalues ---    1.06319   1.06786   1.07132   1.08788   1.09106
     Eigenvalues ---    1.13002   1.15626   1.15755   1.16877   1.19826
     Eigenvalues ---    1.21200   1.24151   1.26115   1.27732   1.37140
     Eigenvalues ---    1.47260   1.53549   1.57128   1.58258   1.58845
     Eigenvalues ---    1.59590   1.67089   1.72965   1.84163   2.34069
 Eigenvalue     1 is   0.00D+00 Eigenvector:
                          Y53       Y56       Y54       Y57       Y49
   1                    0.13552   0.13552   0.13552   0.13552   0.13552
                          Y59       Y55       Y70       Y51       Y60
   1                    0.13552   0.13552   0.13552   0.13552   0.13552
 Eigenvalue     2 is   5.44D-08 Eigenvector:
                          X45       Y46       X46       X40       X52
   1                    0.16120  -0.15172   0.14484   0.14165   0.13621
                          Y73       X44       X41       Y77       Y47
   1                    0.13516   0.13372   0.13255   0.13081  -0.13025
 Eigenvalue     3 is   6.71D-08 Eigenvector:
                          Y46       X54       Z47       Z46       X53
   1                    0.20444  -0.18839  -0.18619  -0.17311  -0.16972
                          Y47       Y41       Z42       Z41       Z69
   1                    0.16836   0.16248  -0.15977  -0.15259   0.14555
 Eigenvalue     4 is   1.59D-07 Eigenvector:
                          Z77       Z76       Z57       Z71       Z54
   1                    0.18580   0.18039  -0.17198  -0.16812  -0.16305
                          Z53       Z75       Y64       Z33       Z66
   1                   -0.16301   0.16018  -0.15427   0.14938  -0.14442
 Eigenvalue     5 is   2.52D-07 Eigenvector:
                          Z47       Y46       Y64       Y9        Y47
   1                    0.18144   0.17629   0.16128  -0.15874   0.14922
                          Z42       Z48       Y7        Y71       Y62
   1                    0.14541   0.14236  -0.14139  -0.13924   0.13913
 Eigenvalue     6 is   4.65D-07 Eigenvector:
                          Y69       Z54       Y48       Y59       Y71
   1                    0.25674  -0.24468  -0.23263  -0.23042   0.20475
                          Y45       Y66       Z53       Z70       Y68
   1                    0.18589   0.18524  -0.18160   0.18022   0.17636
 Eigenvalue     7 is   6.18D-05 Eigenvector:
                          X69       X45       X46       X70       Z70
   1                    0.27144  -0.23953  -0.22631   0.22218   0.21374
                          Z69       X68       X67       X40       X41
   1                    0.20980   0.20720   0.20405  -0.18420  -0.17705
 Quadratic step=3.015D+00 exceeds max=3.000D-01 adjusted using Lamda=-1.075D-03.
 Angle between NR and scaled steps=  20.16 degrees.
 Angle between quadratic step and forces=  69.47 degrees.
 Linear search not attempted -- first point.
 B after Tr=    -0.000703    0.000844    0.001088
         Rot=    1.000000   -0.000135    0.000069   -0.000105 Ang=  -0.02 deg.
 Variable       Old X    -DE/DX   Delta X   Delta X   Delta X     New X
                                 (Linear)    (Quad)   (Total)
    X1       -9.25267  -0.00000   0.00000   0.00390   0.00321  -9.24945
    Y1        0.46472  -0.00002   0.00000  -0.00364  -0.00451   0.46021
    Z1       -0.81710  -0.00001   0.00000  -0.01136  -0.01142  -0.82852
    X2       -9.60701   0.00003   0.00000   0.00840   0.00843  -9.59857
    Y2       -1.93370   0.00001   0.00000  -0.00166  -0.00218  -1.93588
    Z2       -2.39814   0.00001   0.00000  -0.01547  -0.01623  -2.41436
    X3       -7.09061   0.00001   0.00000   0.01110   0.01147  -7.07914
    Y3       -2.78993   0.00002   0.00000   0.00011   0.00043  -2.78951
    Z3       -3.55371   0.00000   0.00000  -0.01110  -0.01174  -3.56545
    X4       -5.20773   0.00004   0.00000   0.00668   0.00685  -5.20087
    Y4       -3.24893   0.00001   0.00000  -0.00126  -0.00112  -3.25006
    Z4       -1.42293  -0.00002   0.00000  -0.00752  -0.00802  -1.43095
    X5       -4.76759   0.00000   0.00000   0.00274   0.00219  -4.76540
    Y5       -0.80332   0.00000   0.00000  -0.00206  -0.00225  -0.80558
    Z5        0.13039  -0.00007   0.00000  -0.00564  -0.00543   0.12496
    X6       -7.27590  -0.00002   0.00000   0.00038  -0.00052  -7.27642
    Y6        0.09532  -0.00000   0.00000  -0.00531  -0.00634   0.08898
    Z6        1.26572   0.00002   0.00000  -0.00833  -0.00822   1.25750
    X7       -7.32501   0.00002   0.00000   0.01399   0.01488  -7.31013
    Y7       -4.50726   0.00001   0.00000   0.00119   0.00177  -4.50549
    Z7       -4.68488  -0.00002   0.00000  -0.01333  -0.01446  -4.69934
    X8      -10.35918   0.00000   0.00000   0.00594   0.00613 -10.35305
    Y8       -3.45298  -0.00000   0.00000  -0.00347  -0.00447  -3.45746
    Z8       -1.20198  -0.00004   0.00000  -0.01936  -0.02063  -1.22261
    X9      -10.98823   0.00001   0.00000   0.01171   0.01189 -10.97634
    Y9       -1.60974   0.00001   0.00000   0.00008  -0.00032  -1.61007
    Z9       -3.90317  -0.00002   0.00000  -0.01815  -0.01901  -3.92218
   X10       -8.64291   0.00001   0.00000   0.00492   0.00408  -8.63882
   Y10        2.00959   0.00004   0.00000  -0.00115  -0.00156   2.00803
   Z10       -2.06037  -0.00003   0.00000  -0.00796  -0.00752  -2.06789
   X11      -11.05641   0.00000   0.00000   0.00200   0.00108 -11.05533
   Y11        1.03468  -0.00001   0.00000  -0.00631  -0.00779   1.02690
   Z11        0.02103  -0.00001   0.00000  -0.01363  -0.01379   0.00724
   X12       -5.95046   0.00000   0.00000   0.00411   0.00442  -5.94604
   Y12       -4.70653  -0.00004   0.00000  -0.00172  -0.00208  -4.70861
   Z12       -0.15806   0.00003   0.00000  -0.00930  -0.01030  -0.16836
   X13       -4.13716   0.00000   0.00000   0.00365   0.00298  -4.13418
   Y13        0.65248   0.00001   0.00000  -0.00040  -0.00010   0.65238
   Z13       -1.20561   0.00000   0.00000  -0.00340  -0.00271  -1.20832
   X14       -7.95201  -0.00000   0.00000  -0.00098  -0.00177  -7.95377
   Y14       -1.29197  -0.00003   0.00000  -0.00793  -0.00946  -1.30143
   Z14        2.64475  -0.00000   0.00000  -0.01153  -0.01189   2.63286
   X15       -6.93118   0.00001   0.00000  -0.00232  -0.00372  -6.93490
   Y15        1.87871  -0.00001   0.00000  -0.00657  -0.00779   1.87092
   Z15        2.25788   0.00000   0.00000  -0.00509  -0.00446   2.25343
   X16       -6.40583   0.00001   0.00000   0.01324   0.01347  -6.39236
   Y16       -1.28758   0.00001   0.00000   0.00154   0.00234  -1.28524
   Z16       -4.81173  -0.00001   0.00000  -0.00825  -0.00839  -4.82012
   X17       -2.70333   0.00001   0.00000   0.00870   0.00918  -2.69415
   Y17       -4.16246   0.00003   0.00000  -0.00107  -0.00018  -4.16264
   Z17       -2.25539  -0.00001   0.00000  -0.00161  -0.00202  -2.25741
   X18       -1.37181   0.00002   0.00000   0.01014   0.01059  -1.36122
   Y18       -2.83587  -0.00001   0.00000  -0.00548  -0.00384  -2.83972
   Z18       -4.00773  -0.00001   0.00000  -0.00385  -0.00372  -4.01145
   X19       -1.42106   0.00001   0.00000   0.00769   0.00827  -1.41278
   Y19       -5.70550   0.00002   0.00000   0.00537   0.00609  -5.69940
   Z19       -0.64933  -0.00000   0.00000   0.00540   0.00476  -0.64457
   X20        1.19315  -0.00000   0.00000   0.01043   0.01092   1.20407
   Y20       -2.93837  -0.00001   0.00000  -0.00384  -0.00163  -2.94000
   Z20       -4.14912  -0.00002   0.00000   0.00028   0.00074  -4.14838
   X21       -2.46717   0.00001   0.00000   0.01098   0.01135  -2.45582
   Y21       -1.63027  -0.00000   0.00000  -0.01039  -0.00864  -1.63891
   Z21       -5.24705  -0.00001   0.00000  -0.00938  -0.00908  -5.25613
   X22        1.14370   0.00000   0.00000   0.00791   0.00853   1.15223
   Y22       -5.87843  -0.00000   0.00000   0.00862   0.00988  -5.86855
   Z22       -0.64986   0.00003   0.00000   0.01082   0.01049  -0.63937
   X23       -2.56432   0.00000   0.00000   0.00634   0.00694  -2.55738
   Y23       -6.69027   0.00000   0.00000   0.00858   0.00868  -6.68159
   Z23        0.73799   0.00000   0.00000   0.00658   0.00552   0.74351
   X24        2.58001   0.00001   0.00000   0.00886   0.00938   2.58938
   Y24       -4.30160  -0.00002   0.00000   0.00447   0.00647  -4.29514
   Z24       -2.28001   0.00001   0.00000   0.00761   0.00789  -2.27212
   X25        2.14883   0.00002   0.00000   0.01158   0.01203   2.16086
   Y25       -1.83101   0.00001   0.00000  -0.00774  -0.00494  -1.83595
   Z25       -5.57662  -0.00001   0.00000  -0.00202  -0.00113  -5.57775
   X26        2.03234   0.00001   0.00000   0.00683   0.00749   2.03983
   Y26       -7.03456   0.00002   0.00000   0.01480   0.01586  -7.01871
   Z26        0.77998   0.00002   0.00000   0.01650   0.01597   0.79596
   X27        5.07403   0.00002   0.00000   0.00829   0.00873   5.08276
   Y27       -4.11157   0.00003   0.00000   0.00848   0.01095  -4.10062
   Z27       -2.07363   0.00001   0.00000   0.01124   0.01192  -2.06171
   X28        6.40899   0.00001   0.00000   0.00525   0.00557   6.41456
   Y28       -5.02061   0.00002   0.00000   0.02168   0.02381  -4.99680
   Z28        0.18890   0.00003   0.00000   0.01837   0.01900   0.20789
   X29        6.18080   0.00001   0.00000   0.00650   0.00721   6.18801
   Y29       -7.06334   0.00003   0.00000   0.02266   0.02469  -7.03865
   Z29        0.40017   0.00003   0.00000   0.02920   0.02925   0.42941
   X30        5.62819   0.00001   0.00000   0.00175   0.00163   5.62982
   Y30       -4.02727   0.00004   0.00000   0.03014   0.03166  -3.99561
   Z30        1.83953   0.00001   0.00000   0.01163   0.01242   1.85195
   X31        6.47792   0.00001   0.00000   0.00818   0.00836   6.48629
   Y31       -2.06269  -0.00000   0.00000   0.00358   0.00668  -2.05601
   Z31       -3.31554  -0.00002   0.00000   0.00313   0.00455  -3.31099
   X32        6.97715   0.00002   0.00000   0.01029   0.01086   6.98802
   Y32       -2.61691  -0.00001   0.00000  -0.00537  -0.00164  -2.61856
   Z32       -5.24955   0.00001   0.00000   0.00621   0.00756  -5.24199
   X33        5.29223  -0.00001   0.00000   0.00718   0.00702   5.29925
   Y33       -0.37099   0.00003   0.00000   0.00282   0.00568  -0.36531
   Z33       -3.34517   0.00002   0.00000  -0.00572  -0.00400  -3.34918
   X34       -2.68112   0.00015   0.00000  -0.00006  -0.00081  -2.68193
   Y34       -1.04217   0.00002   0.00000  -0.00226  -0.00249  -1.04465
   Z34        1.90362  -0.00007   0.00000  -0.00256  -0.00213   1.90149
   X35       -2.83030  -0.00000   0.00000  -0.00314  -0.00389  -2.83419
   Y35       -2.70751  -0.00004   0.00000  -0.00548  -0.00644  -2.71394
   Z35        4.49126   0.00010   0.00000  -0.00478  -0.00481   4.48644
   X36       -5.10789   0.00002   0.00000   0.00009  -0.00032  -5.10821
   Y36       -4.28225  -0.00002   0.00000  -0.00955  -0.01096  -4.29321
   Z36        4.38343  -0.00007   0.00000  -0.01294  -0.01371   4.36972
   X37       -0.40153  -0.00002   0.00000  -0.00163  -0.00217  -0.40370
   Y37       -3.98349   0.00001   0.00000  -0.00150  -0.00205  -3.98554
   Z37        4.86542  -0.00004   0.00000  -0.00123  -0.00127   4.86415
   X38       -1.34998  -0.00001   0.00000  -0.00618  -0.00794  -1.35792
   Y38        4.65810   0.00003   0.00000   0.01435   0.01478   4.67287
   Z38        0.48670   0.00004   0.00000   0.01506   0.01722   0.50392
   X39       -0.41599  -0.00000   0.00000  -0.01145  -0.01270  -0.42868
   Y39        3.78709   0.00003   0.00000   0.02101   0.02226   3.80935
   Z39       -1.83867  -0.00000   0.00000   0.01037   0.01242  -1.82624
   X40       -1.85240  -0.00003   0.00000  -0.01933  -0.02033  -1.87273
   Y40        4.01739   0.00002   0.00000   0.02066   0.02220   4.03958
   Z40       -4.03396   0.00003   0.00000   0.01552   0.01744  -4.01652
   X41       -4.25300  -0.00001   0.00000  -0.02257  -0.02381  -4.27681
   Y41        5.10534   0.00001   0.00000   0.01281   0.01382   5.11916
   Z41       -3.97185   0.00001   0.00000   0.02542   0.02730  -3.94455
   X42       -5.20555  -0.00004   0.00000  -0.01790  -0.01963  -5.22518
   Y42        5.96764   0.00000   0.00000   0.00521   0.00540   5.97304
   Z42       -1.67636   0.00007   0.00000   0.03026   0.03224  -1.64412
   X43       -3.75730  -0.00003   0.00000  -0.00977  -0.01176  -3.76906
   Y43        5.74571   0.00001   0.00000   0.00630   0.00620   5.75192
   Z43        0.51554   0.00004   0.00000   0.02502   0.02714   0.54267
   X44        1.39443  -0.00002   0.00000  -0.00862  -0.00966   1.38476
   Y44        2.82809   0.00002   0.00000   0.02665   0.02829   2.85638
   Z44       -1.87100  -0.00001   0.00000   0.00240   0.00445  -1.86654
   X45       -1.07711  -0.00002   0.00000  -0.02286  -0.02347  -1.10058
   Y45        3.35239   0.00005   0.00000   0.02691   0.02909   3.38148
   Z45       -5.81862   0.00002   0.00000   0.01168   0.01353  -5.80509
   X46       -5.36049  -0.00002   0.00000  -0.02865  -0.02969  -5.39018
   Y46        5.29063   0.00003   0.00000   0.01279   0.01403   5.30465
   Z46       -5.69089   0.00004   0.00000   0.02936   0.03113  -5.65976
   X47       -7.07011  -0.00002   0.00000  -0.02045  -0.02238  -7.09248
   Y47        6.82325   0.00000   0.00000  -0.00120  -0.00143   6.82182
   Z47       -1.58771   0.00004   0.00000   0.03799   0.03994  -1.54777
   X48       -4.51618  -0.00002   0.00000  -0.00635  -0.00873  -4.52491
   Y48        6.44595  -0.00001   0.00000   0.00060  -0.00013   6.44582
   Z48        2.29422   0.00002   0.00000   0.02868   0.03088   2.32510
   X49        1.04067   0.00018   0.00000   0.00060  -0.00116   1.03951
   Y49        2.40813  -0.00013   0.00000   0.01643   0.01641   2.42455
   Z49        3.98689  -0.00011   0.00000   0.01184   0.01373   4.00062
   X50       -0.81574  -0.00016   0.00000  -0.00003  -0.00080  -0.81654
   Y50       -0.56817  -0.00006   0.00000  -0.00001   0.00029  -0.56787
   Z50        1.35777   0.00001   0.00000   0.00109   0.00192   1.35968
   X51        3.22457  -0.00025   0.00000  -0.01387  -0.01518   3.20939
   Y51        1.06063   0.00014   0.00000   0.00207   0.00283   1.06346
   Z51        2.79324   0.00019   0.00000   0.00327   0.00509   2.79833
   X52        2.51039  -0.00010   0.00000  -0.03320  -0.03399   2.47639
   Y52       -0.03428  -0.00006   0.00000  -0.00089   0.00029  -0.03399
   Z52        0.67630  -0.00003   0.00000   0.01117   0.01259   0.68889
   X53        3.90576  -0.00028   0.00000  -0.01264  -0.01386   3.89190
   Y53       -0.65698  -0.00019   0.00000   0.00410   0.00449  -0.65250
   Z53        4.72838  -0.00002   0.00000   0.00450   0.00595   4.73433
   X54        2.59017   0.00024   0.00000  -0.01972  -0.02067   2.56950
   Y54       -1.94613   0.00025   0.00000   0.01212   0.01223  -1.93390
   Z54        4.70910   0.00003   0.00000   0.01634   0.01726   4.72636
   X55        5.49544   0.00024   0.00000  -0.00138  -0.00306   5.49238
   Y55        2.90842   0.00026   0.00000  -0.01370  -0.01242   2.89600
   Z55        2.66397   0.00021   0.00000  -0.01600  -0.01337   2.65060
   X56        5.36952  -0.00005   0.00000   0.02026   0.01809   5.38762
   Y56        4.22373  -0.00023   0.00000  -0.01131  -0.01048   4.21325
   Z56        4.26415  -0.00024   0.00000  -0.01742  -0.01445   4.24970
   X57        7.18181  -0.00003   0.00000  -0.00776  -0.00924   7.17257
   Y57        1.75837   0.00000   0.00000  -0.02635  -0.02481   1.73356
   Z57        3.02823  -0.00002   0.00000  -0.02698  -0.02444   3.00379
   X58        0.18636   0.00002   0.00000   0.00294   0.00084   0.18720
   Y58        4.68388   0.00000   0.00000   0.01615   0.01624   4.70011
   Z58        2.94036   0.00006   0.00000   0.00948   0.01186   2.95222
   X59       -1.03561  -0.00001   0.00000   0.01059   0.00812  -1.02749
   Y59        5.52545   0.00004   0.00000   0.02309   0.02253   5.54798
   Z59        4.39055   0.00000   0.00000   0.01194   0.01438   4.40493
   X60        1.76973  -0.00002   0.00000   0.00551   0.00317   1.77290
   Y60        6.00867  -0.00002   0.00000   0.01116   0.01165   6.02032
   Z60        2.69290   0.00002   0.00000   0.00024   0.00320   2.69610
   X61       -3.15165  -0.00002   0.00000  -0.01346  -0.01502  -3.16667
   Y61       -0.47610  -0.00000   0.00000  -0.00873  -0.01044  -0.48653
   Z61        6.98156   0.00003   0.00000  -0.00314  -0.00261   6.97894
   X62       -1.50177  -0.00002   0.00000  -0.01606  -0.01786  -1.51963
   Y62        0.76196  -0.00001   0.00000  -0.00485  -0.00617   0.75578
   Z62        6.85625  -0.00002   0.00000   0.00111   0.00220   6.85844
   X63       -4.90592  -0.00003   0.00000  -0.01530  -0.01704  -4.92295
   Y63        0.56752  -0.00002   0.00000  -0.01254  -0.01453   0.55299
   Z63        6.68644  -0.00001   0.00000  -0.00594  -0.00538   6.68106
   X64       -3.20575  -0.00002   0.00000  -0.01479  -0.01638  -3.22213
   Y64       -1.52185  -0.00001   0.00000  -0.01045  -0.01265  -1.53450
   Z64        8.75807  -0.00001   0.00000  -0.00420  -0.00397   8.75410
   X65        5.88308  -0.00020   0.00000  -0.00800  -0.00964   5.87344
   Y65        4.35718   0.00026   0.00000  -0.02100  -0.01897   4.33821
   Z65        0.20101  -0.00001   0.00000  -0.02129  -0.01822   0.18279
   X66        5.99081  -0.00011   0.00000  -0.05626  -0.05740   5.93341
   Y66        3.01094  -0.00000   0.00000  -0.02291  -0.02044   2.99050
   Z66       -1.36909  -0.00007   0.00000  -0.02303  -0.02031  -1.38940
   X67        4.26216   0.00024   0.00000   0.01006   0.00821   4.27037
   Y67        5.57361  -0.00021   0.00000   0.00935   0.01115   5.58476
   Z67       -0.22484   0.00006   0.00000   0.00127   0.00445  -0.22039
   X68        8.27626  -0.00004   0.00000   0.02605   0.02407   8.30034
   Y68        5.97042   0.00001   0.00000  -0.07012  -0.06760   5.90282
   Z68        0.28397  -0.00000   0.00000  -0.05562  -0.05179   0.23218
   X69        8.57783   0.00003   0.00000   0.01952   0.01757   8.59540
   Y69        6.99182  -0.00010   0.00000  -0.07308  -0.07001   6.92180
   Z69       -1.48892  -0.00005   0.00000  -0.05837  -0.05423  -1.54315
   X70        8.16630   0.00010   0.00000   0.07923   0.07675   8.24305
   Y70        7.36672  -0.00018   0.00000  -0.07139  -0.06929   7.29743
   Z70        1.80896  -0.00014   0.00000  -0.05113  -0.04694   1.76202
   X71        9.94708   0.00006   0.00000   0.00726   0.00549   9.95258
   Y71        4.79958  -0.00023   0.00000  -0.10633  -0.10354   4.69604
   Z71        0.64090  -0.00011   0.00000  -0.08466  -0.08094   0.55996
   X72        9.13556   0.00000   0.00000   0.00556   0.00578   9.14134
   Y72       -4.24376   0.00004   0.00000   0.02098   0.02382  -4.21993
   Z72       -0.32212   0.00002   0.00000   0.01902   0.02023  -0.30190
   X73       10.23848  -0.00001   0.00000   0.00202   0.00198  10.24046
   Y73       -4.11839   0.00005   0.00000   0.03225   0.03485  -4.08354
   Z73        1.41626   0.00002   0.00000   0.02044   0.02183   1.43809
   X74       10.04416   0.00001   0.00000   0.00913   0.00982  10.05398
   Y74       -5.61020   0.00002   0.00000   0.01406   0.01744  -5.59276
   Z74       -1.58457   0.00005   0.00000   0.02912   0.03009  -1.55449
   X75        8.80714  -0.00002   0.00000   0.00668   0.00655   8.81370
   Y75       -1.68942  -0.00002   0.00000   0.01294   0.01607  -1.67334
   Z75       -1.63837   0.00002   0.00000   0.00314   0.00499  -1.63338
   X76        8.37489   0.00003   0.00000   0.00596   0.00533   8.38022
   Y76       -0.24839   0.00004   0.00000   0.02182   0.02448  -0.22390
   Z76       -0.22323  -0.00002   0.00000  -0.00614  -0.00396  -0.22719
   X77       10.46298   0.00001   0.00000   0.00775   0.00764  10.47062
   Y77       -1.09137   0.00000   0.00000   0.00611   0.00988  -1.08149
   Z77       -2.71491  -0.00000   0.00000   0.00095   0.00319  -2.71173
         Item               Value     Threshold  Converged?
 Maximum Force            0.000277     0.000450     YES
 RMS     Force            0.000074     0.000300     YES
 Maximum Displacement     0.103542     0.001800     NO 
 RMS     Displacement     0.019682     0.001200     NO 
 Predicted change in Energy=-1.101786D-04
 GradGradGradGradGradGradGradGradGradGradGradGradGradGradGradGradGradGrad

 Leave Link  103 at Thu Feb  7 14:51:19 2019, MaxMem=   104857600 cpu:              20.2 elap:               0.9
 (Enter /home/xinyan/g16/l9999.exe)
 1\1\GINC-TSE4\Force\RM062X\6-31G(d)\C27H41N3O5S1\STEVETSE\07-Feb-2019\
 0\\#p M062X/6-31G* em=gd3 force int=ultrafine\\Title\\0,1\C,-4.8963,0.
 24592,-0.43239\C,-5.08381,-1.02327,-1.26904\C,-3.75219,-1.47637,-1.880
 54\C,-2.75581,-1.71926,-0.75298\C,-2.5229,-0.4251,0.069\C,-3.85024,0.0
 5044,0.66979\H,-3.87623,-2.38514,-2.47913\H,-5.48184,-1.82724,-0.63606
 \H,-5.81472,-0.85184,-2.06547\H,-4.57363,1.06343,-1.0903\H,-5.8508,0.5
 4753,0.01113\H,-3.14885,-2.49059,-0.08364\H,-2.18929,0.34528,-0.63798\
 H,-4.20802,-0.68368,1.39954\H,-3.66782,0.99417,1.19482\H,-3.38982,-0.6
 8136,-2.54626\N,-1.43054,-2.20268,-1.1935\C,-0.72593,-1.50068,-2.1208\
 C,-0.75199,-3.01922,-0.34361\C,0.63139,-1.55492,-2.19562\H,-1.30557,-0
 .8627,-2.77662\C,0.60522,-3.11073,-0.34389\H,-1.35698,-3.54034,0.39053
 \C,1.36528,-2.27631,-1.20653\H,1.13711,-0.96893,-2.95102\H,1.07547,-3.
 72253,0.41275\N,2.68506,-2.17575,-1.09732\C,3.39149,-2.65679,0.09996\H
 ,3.27074,-3.73776,0.21176\H,2.97831,-2.13114,0.97344\C,3.42797,-1.0915
 3,-1.75451\H,3.69215,-1.38481,-2.77794\H,2.80053,-0.19632,-1.77019\N,-
 1.41879,-0.55149,1.00735\S,-1.49773,-1.43275,2.37667\O,-2.70298,-2.266
 07,2.31961\O,-0.21248,-2.10797,2.57467\C,-0.71438,2.46496,0.25755\C,-0
 .22013,2.00404,-0.97298\C,-0.98025,2.12591,-2.13468\C,-2.25059,2.70163
 ,-2.10181\C,-2.75466,3.15794,-0.88709\C,-1.98828,3.0405,0.27281\H,0.73
 79,1.49656,-0.99009\H,-0.56998,1.77401,-3.07908\H,-2.83665,2.79968,-3.
 01149\H,-3.74134,3.61071,-0.84018\H,-2.38986,3.41105,1.21405\O,0.5507,
 1.27433,2.10977\H,-0.43167,-0.30066,0.7185\C,1.70637,0.56126,1.47812\O
 ,1.32844,-0.01814,0.35788\O,2.06684,-0.34766,2.50215\H,1.37066,-1.0298
 5,2.49195\C,2.90806,1.53907,1.40971\H,2.84143,2.2351,2.25649\H,3.80045
 ,0.93049,1.60247\C,0.09862,2.4786,1.55597\H,-0.54802,2.92394,2.32338\H
 ,0.9365,3.17965,1.42502\C,-1.66778,-0.25194,3.69448\H,-0.7947,0.40321,
 3.62817\H,-2.5961,0.30032,3.53831\H,-1.69641,-0.80533,4.63457\C,3.1131
 9,2.30572,0.10637\H,3.1702,1.59332,-0.72449\H,2.25544,2.94943,-0.11898
 \C,4.37961,3.15941,0.15027\H,4.53919,3.69991,-0.7879\H,4.32142,3.8983,
 0.95726\H,5.26377,2.53983,0.33915\C,4.83433,-2.2457,-0.17046\H,5.41797
 ,-2.17936,0.74945\H,5.31514,-2.96879,-0.83852\C,4.66054,-0.894,-0.8669
 9\H,4.4318,-0.13144,-0.11813\H,5.53677,-0.57753,-1.43667\\Version=ES64
 L-G16RevA.03\State=1-A\HF=-1991.3584923\RMSD=9.380e-09\RMSF=7.354e-05\
 Dipole=-0.9589015,-0.6906203,-2.5376065\Quadrupole=7.8285103,-5.241150
 8,-2.5873595,-9.2965219,-3.947416,7.2355352\PG=C01 [X(C27H41N3O5S1)]\\
 @


 Ideas are like rabbits. You get a couple and learn
 how to handle them, and pretty soon you have a dozen.
                                    -- John Steinbeck
 Job cpu time:       0 days  1 hours 18 minutes 39.9 seconds.
 Elapsed time:       0 days  0 hours  3 minutes 18.7 seconds.
 File lengths (MBytes):  RWF=    216 Int=      0 D2E=      0 Chk=     25 Scr=      1
 Normal termination of Gaussian 16 at Thu Feb  7 14:51:20 2019.
