 Entering Gaussian System, Link 0=g16
 Input=C27N3H41SO5-102.gjf
 Output=C27N3H41SO5-102.log
 Initial command:
 /home/xinyan/g16/l1.exe "/local/home/tmp/Gau-9210.inp" -scrdir="/local/home/tmp/"
 Entering Link 1 = /home/xinyan/g16/l1.exe PID=      9211.
  
 Copyright (c) 1988,1990,1992,1993,1995,1998,2003,2009,2016,
            Gaussian, Inc.  All Rights Reserved.
  
 This is part of the Gaussian(R) 16 program.  It is based on
 the Gaussian(R) 09 system (copyright 2009, Gaussian, Inc.),
 the Gaussian(R) 03 system (copyright 2003, Gaussian, Inc.),
 the Gaussian(R) 98 system (copyright 1998, Gaussian, Inc.),
 the Gaussian(R) 94 system (copyright 1995, Gaussian, Inc.),
 the Gaussian 92(TM) system (copyright 1992, Gaussian, Inc.),
 the Gaussian 90(TM) system (copyright 1990, Gaussian, Inc.),
 the Gaussian 88(TM) system (copyright 1988, Gaussian, Inc.),
 the Gaussian 86(TM) system (copyright 1986, Carnegie Mellon
 University), and the Gaussian 82(TM) system (copyright 1983,
 Carnegie Mellon University). Gaussian is a federally registered
 trademark of Gaussian, Inc.
  
 This software contains proprietary and confidential information,
 including trade secrets, belonging to Gaussian, Inc.
  
 This software is provided under written license and may be
 used, copied, transmitted, or stored only in accord with that
 written license.
  
 The following legend is applicable only to US Government
 contracts under FAR:
  
                    RESTRICTED RIGHTS LEGEND
  
 Use, reproduction and disclosure by the US Government is
 subject to restrictions as set forth in subparagraphs (a)
 and (c) of the Commercial Computer Software - Restricted
 Rights clause in FAR 52.227-19.
  
 Gaussian, Inc.
 340 Quinnipiac St., Bldg. 40, Wallingford CT 06492
  
  
 ---------------------------------------------------------------
 Warning -- This program may not be used in any manner that
 competes with the business of Gaussian, Inc. or will provide
 assistance to any competitor of Gaussian, Inc.  The licensee
 of this program is prohibited from giving any competitor of
 Gaussian, Inc. access to this program.  By using this program,
 the user acknowledges that Gaussian, Inc. is engaged in the
 business of creating and licensing software in the field of
 computational chemistry and represents and warrants to the
 licensee that it is not a competitor of Gaussian, Inc. and that
 it will not use this program in any manner prohibited above.
 ---------------------------------------------------------------
  

 Cite this work as:
 Gaussian 16, Revision A.03,
 M. J. Frisch, G. W. Trucks, H. B. Schlegel, G. E. Scuseria, 
 M. A. Robb, J. R. Cheeseman, G. Scalmani, V. Barone, 
 G. A. Petersson, H. Nakatsuji, X. Li, M. Caricato, A. V. Marenich, 
 J. Bloino, B. G. Janesko, R. Gomperts, B. Mennucci, H. P. Hratchian, 
 J. V. Ortiz, A. F. Izmaylov, J. L. Sonnenberg, D. Williams-Young, 
 F. Ding, F. Lipparini, F. Egidi, J. Goings, B. Peng, A. Petrone, 
 T. Henderson, D. Ranasinghe, V. G. Zakrzewski, J. Gao, N. Rega, 
 G. Zheng, W. Liang, M. Hada, M. Ehara, K. Toyota, R. Fukuda, 
 J. Hasegawa, M. Ishida, T. Nakajima, Y. Honda, O. Kitao, H. Nakai, 
 T. Vreven, K. Throssell, J. A. Montgomery, Jr., J. E. Peralta, 
 F. Ogliaro, M. J. Bearpark, J. J. Heyd, E. N. Brothers, K. N. Kudin, 
 V. N. Staroverov, T. A. Keith, R. Kobayashi, J. Normand, 
 K. Raghavachari, A. P. Rendell, J. C. Burant, S. S. Iyengar, 
 J. Tomasi, M. Cossi, J. M. Millam, M. Klene, C. Adamo, R. Cammi, 
 J. W. Ochterski, R. L. Martin, K. Morokuma, O. Farkas, 
 J. B. Foresman, and D. J. Fox, Gaussian, Inc., Wallingford CT, 2016.
 
 ******************************************
 Gaussian 16:  ES64L-G16RevA.03 25-Dec-2016
                 7-Feb-2019 
 ******************************************
 %nproc=24
 Will use up to   24 processors via shared memory.
 ------------------------------------------
 #p M062X/6-31G* em=gd3 force int=ultrafine
 ------------------------------------------
 1/10=7,30=1,38=1/1,3;
 2/12=2,17=6,18=5,40=1/2;
 3/5=1,6=6,7=1,11=2,25=1,30=1,71=1,74=-55,75=-5,124=31/1,2,3;
 4//1;
 5/5=2,38=5/2;
 6/7=2,8=2,9=2,10=2,28=1/1;
 7/29=1/1,2,3,16;
 1/10=7,30=1/3;
 99//99;
 Leave Link    1 at Thu Feb  7 14:11:48 2019, MaxMem=           0 cpu:               2.5 elap:               0.1
 (Enter /home/xinyan/g16/l101.exe)
 -----
 Title
 -----
 Symbolic Z-matrix:
 Charge =  0 Multiplicity = 1
 C                    -4.90112   0.24871  -0.4288 
 C                    -5.09161  -1.02492  -1.258 
 C                    -3.76187  -1.48198  -1.87049 
 C                    -2.76212  -1.71937  -0.74468 
 C                    -2.52782  -0.42227   0.07173 
 C                    -3.85349   0.05754   0.67269 
 H                    -3.88778  -2.39401  -2.46368 
 H                    -5.48846  -1.82512  -0.61951 
 H                    -5.82451  -0.85758  -2.05348 
 H                    -4.57849   1.0622   -1.09181 
 H                    -5.85447   0.554     0.01464 
 H                    -3.15239  -2.48864  -0.07133 
 H                    -2.1944    0.3452   -0.63847 
 H                    -4.21088  -0.67247   1.40663 
 H                    -3.66893   1.00358   1.19286 
 H                    -3.40103  -0.69093  -2.54169 
 N                    -1.43767  -2.20289  -1.18772 
 C                    -0.73509  -1.49972  -2.11592 
 C                    -0.75726  -3.02062  -0.34067 
 C                     0.62189  -1.55435  -2.19441 
 H                    -1.31619  -0.8601   -2.76881 
 C                     0.59982  -3.11457  -0.34625 
 H                    -1.36018  -3.54097   0.39573 
 C                     1.35829  -2.28012  -1.21039 
 H                     1.12616  -0.96637  -2.94932 
 H                     1.07176  -3.72785   0.40813 
 N                     2.67867  -2.18304  -1.10704 
 C                     3.38978  -2.67649   0.08215 
 H                     3.26675  -3.75812   0.18486 
 H                     2.98254  -2.15738   0.96227 
 C                     3.42058  -1.09307  -1.75679 
 H                     3.68271  -1.37768  -2.78322 
 H                     2.79366  -0.19737  -1.7614 
 N                    -1.42243  -0.54576   1.00936 
 S                    -1.49632  -1.42515   2.38131 
 O                    -2.70706  -2.25065   2.33155 
 O                    -0.21398  -2.10769   2.57107 
 C                    -0.70481   2.4555    0.24186 
 C                    -0.20856   1.98623  -0.98475 
 C                    -0.96485   2.10468  -2.14939 
 C                    -2.23327   2.68481  -2.12359 
 C                    -2.73916   3.1498   -0.91279 
 C                    -1.9767    3.03593   0.25004 
 H                     0.74783   1.47511  -0.99538 
 H                    -0.55283   1.74631  -3.09064 
 H                    -2.81626   2.77981  -3.03555 
 H                    -3.72432   3.6064   -0.87134 
 H                    -2.38      3.41274   1.18804 
 O                     0.55646   1.26688   2.09814 
 H                    -0.43923  -0.29584   0.71858 
 C                     1.72014   0.55689   1.47341 
 O                     1.35138  -0.02158   0.35056 
 O                     2.07347  -0.35235   2.49948 
 H                     1.37983  -1.03624   2.48078 
 C                     2.91751   1.54028   1.41721 
 H                     2.83886   2.23319   2.26533 
 H                     3.81308   0.93799   1.61491 
 C                     0.10276   2.4703    1.54402 
 H                    -0.54936   2.91229   2.30885 
 H                     0.93843   3.17506   1.41815 
 C                    -1.65069  -0.24136   3.69824 
 H                    -0.77276   0.40674   3.62686 
 H                    -2.57546   0.31788   3.54577 
 H                    -1.67904  -0.79367   4.63898 
 C                     3.12596   2.31376   0.11827 
 H                     3.23893   1.60563  -0.70999 
 H                     2.24817   2.91803  -0.13279 
 C                     4.35174   3.22198   0.19864 
 H                     4.52025   3.76382  -0.73713 
 H                     4.23221   3.96151   0.99732 
 H                     5.25466   2.64296   0.42276 
 C                     4.83187  -2.26538  -0.1916 
 H                     5.42147  -2.2118    0.7253 
 H                     5.30689  -2.98086  -0.87198 
 C                     4.65474  -0.90495  -0.86958 
 H                     4.42448  -0.15382  -0.10956 
 H                     5.52911  -0.57862  -1.43655 
 
 ITRead=  0  0  0  0  0  0  0  0  0  0  0  0  0  0  0  0  0  0  0  0
 ITRead=  0  0  0  0  0  0  0  0  0  0  0  0  0  0  0  0  0  0  0  0
 ITRead=  0  0  0  0  0  0  0  0  0  0  0  0  0  0  0  0  0  0  0  0
 ITRead=  0  0  0  0  0  0  0  0  0  0  0  0  0  0  0  0  0
 MicOpt= -1 -1 -1 -1 -1 -1 -1 -1 -1 -1 -1 -1 -1 -1 -1 -1 -1 -1 -1 -1
 MicOpt= -1 -1 -1 -1 -1 -1 -1 -1 -1 -1 -1 -1 -1 -1 -1 -1 -1 -1 -1 -1
 MicOpt= -1 -1 -1 -1 -1 -1 -1 -1 -1 -1 -1 -1 -1 -1 -1 -1 -1 -1 -1 -1
 MicOpt= -1 -1 -1 -1 -1 -1 -1 -1 -1 -1 -1 -1 -1 -1 -1 -1 -1
 NAtoms=     77 NQM=       77 NQMF=       0 NMMI=      0 NMMIF=      0
                NMic=       0 NMicF=      0.
                    Isotopes and Nuclear Properties:
 (Nuclear quadrupole moments (NQMom) in fm**2, nuclear magnetic moments (NMagM)
  in nuclear magnetons)

  Atom         1           2           3           4           5           6           7           8           9          10
 IAtWgt=          12          12          12          12          12          12           1           1           1           1
 AtmWgt=  12.0000000  12.0000000  12.0000000  12.0000000  12.0000000  12.0000000   1.0078250   1.0078250   1.0078250   1.0078250
 NucSpn=           0           0           0           0           0           0           1           1           1           1
 AtZEff=  -0.0000000  -0.0000000  -0.0000000  -0.0000000  -0.0000000  -0.0000000  -0.0000000  -0.0000000  -0.0000000  -0.0000000
 NQMom=    0.0000000   0.0000000   0.0000000   0.0000000   0.0000000   0.0000000   0.0000000   0.0000000   0.0000000   0.0000000
 NMagM=    0.0000000   0.0000000   0.0000000   0.0000000   0.0000000   0.0000000   2.7928460   2.7928460   2.7928460   2.7928460
 AtZNuc=   6.0000000   6.0000000   6.0000000   6.0000000   6.0000000   6.0000000   1.0000000   1.0000000   1.0000000   1.0000000

  Atom        11          12          13          14          15          16          17          18          19          20
 IAtWgt=           1           1           1           1           1           1          14          12          12          12
 AtmWgt=   1.0078250   1.0078250   1.0078250   1.0078250   1.0078250   1.0078250  14.0030740  12.0000000  12.0000000  12.0000000
 NucSpn=           1           1           1           1           1           1           2           0           0           0
 AtZEff=  -0.0000000  -0.0000000  -0.0000000  -0.0000000  -0.0000000  -0.0000000  -0.0000000  -0.0000000  -0.0000000  -0.0000000
 NQMom=    0.0000000   0.0000000   0.0000000   0.0000000   0.0000000   0.0000000   2.0440000   0.0000000   0.0000000   0.0000000
 NMagM=    2.7928460   2.7928460   2.7928460   2.7928460   2.7928460   2.7928460   0.4037610   0.0000000   0.0000000   0.0000000
 AtZNuc=   1.0000000   1.0000000   1.0000000   1.0000000   1.0000000   1.0000000   7.0000000   6.0000000   6.0000000   6.0000000

  Atom        21          22          23          24          25          26          27          28          29          30
 IAtWgt=           1          12           1          12           1           1          14          12           1           1
 AtmWgt=   1.0078250  12.0000000   1.0078250  12.0000000   1.0078250   1.0078250  14.0030740  12.0000000   1.0078250   1.0078250
 NucSpn=           1           0           1           0           1           1           2           0           1           1
 AtZEff=  -0.0000000  -0.0000000  -0.0000000  -0.0000000  -0.0000000  -0.0000000  -0.0000000  -0.0000000  -0.0000000  -0.0000000
 NQMom=    0.0000000   0.0000000   0.0000000   0.0000000   0.0000000   0.0000000   2.0440000   0.0000000   0.0000000   0.0000000
 NMagM=    2.7928460   0.0000000   2.7928460   0.0000000   2.7928460   2.7928460   0.4037610   0.0000000   2.7928460   2.7928460
 AtZNuc=   1.0000000   6.0000000   1.0000000   6.0000000   1.0000000   1.0000000   7.0000000   6.0000000   1.0000000   1.0000000

  Atom        31          32          33          34          35          36          37          38          39          40
 IAtWgt=          12           1           1          14          32          16          16          12          12          12
 AtmWgt=  12.0000000   1.0078250   1.0078250  14.0030740  31.9720718  15.9949146  15.9949146  12.0000000  12.0000000  12.0000000
 NucSpn=           0           1           1           2           0           0           0           0           0           0
 AtZEff=  -0.0000000  -0.0000000  -0.0000000  -0.0000000  -0.0000000  -0.0000000  -0.0000000  -0.0000000  -0.0000000  -0.0000000
 NQMom=    0.0000000   0.0000000   0.0000000   2.0440000   0.0000000   0.0000000   0.0000000   0.0000000   0.0000000   0.0000000
 NMagM=    0.0000000   2.7928460   2.7928460   0.4037610   0.0000000   0.0000000   0.0000000   0.0000000   0.0000000   0.0000000
 AtZNuc=   6.0000000   1.0000000   1.0000000   7.0000000  16.0000000   8.0000000   8.0000000   6.0000000   6.0000000   6.0000000

  Atom        41          42          43          44          45          46          47          48          49          50
 IAtWgt=          12          12          12           1           1           1           1           1          16           1
 AtmWgt=  12.0000000  12.0000000  12.0000000   1.0078250   1.0078250   1.0078250   1.0078250   1.0078250  15.9949146   1.0078250
 NucSpn=           0           0           0           1           1           1           1           1           0           1
 AtZEff=  -0.0000000  -0.0000000  -0.0000000  -0.0000000  -0.0000000  -0.0000000  -0.0000000  -0.0000000  -0.0000000  -0.0000000
 NQMom=    0.0000000   0.0000000   0.0000000   0.0000000   0.0000000   0.0000000   0.0000000   0.0000000   0.0000000   0.0000000
 NMagM=    0.0000000   0.0000000   0.0000000   2.7928460   2.7928460   2.7928460   2.7928460   2.7928460   0.0000000   2.7928460
 AtZNuc=   6.0000000   6.0000000   6.0000000   1.0000000   1.0000000   1.0000000   1.0000000   1.0000000   8.0000000   1.0000000

  Atom        51          52          53          54          55          56          57          58          59          60
 IAtWgt=          12          16          16           1          12           1           1          12           1           1
 AtmWgt=  12.0000000  15.9949146  15.9949146   1.0078250  12.0000000   1.0078250   1.0078250  12.0000000   1.0078250   1.0078250
 NucSpn=           0           0           0           1           0           1           1           0           1           1
 AtZEff=  -0.0000000  -0.0000000  -0.0000000  -0.0000000  -0.0000000  -0.0000000  -0.0000000  -0.0000000  -0.0000000  -0.0000000
 NQMom=    0.0000000   0.0000000   0.0000000   0.0000000   0.0000000   0.0000000   0.0000000   0.0000000   0.0000000   0.0000000
 NMagM=    0.0000000   0.0000000   0.0000000   2.7928460   0.0000000   2.7928460   2.7928460   0.0000000   2.7928460   2.7928460
 AtZNuc=   6.0000000   8.0000000   8.0000000   1.0000000   6.0000000   1.0000000   1.0000000   6.0000000   1.0000000   1.0000000

  Atom        61          62          63          64          65          66          67          68          69          70
 IAtWgt=          12           1           1           1          12           1           1          12           1           1
 AtmWgt=  12.0000000   1.0078250   1.0078250   1.0078250  12.0000000   1.0078250   1.0078250  12.0000000   1.0078250   1.0078250
 NucSpn=           0           1           1           1           0           1           1           0           1           1
 AtZEff=  -0.0000000  -0.0000000  -0.0000000  -0.0000000  -0.0000000  -0.0000000  -0.0000000  -0.0000000  -0.0000000  -0.0000000
 NQMom=    0.0000000   0.0000000   0.0000000   0.0000000   0.0000000   0.0000000   0.0000000   0.0000000   0.0000000   0.0000000
 NMagM=    0.0000000   2.7928460   2.7928460   2.7928460   0.0000000   2.7928460   2.7928460   0.0000000   2.7928460   2.7928460
 AtZNuc=   6.0000000   1.0000000   1.0000000   1.0000000   6.0000000   1.0000000   1.0000000   6.0000000   1.0000000   1.0000000

  Atom        71          72          73          74          75          76          77
 IAtWgt=           1          12           1           1          12           1           1
 AtmWgt=   1.0078250  12.0000000   1.0078250   1.0078250  12.0000000   1.0078250   1.0078250
 NucSpn=           1           0           1           1           0           1           1
 AtZEff=  -0.0000000  -0.0000000  -0.0000000  -0.0000000  -0.0000000  -0.0000000  -0.0000000
 NQMom=    0.0000000   0.0000000   0.0000000   0.0000000   0.0000000   0.0000000   0.0000000
 NMagM=    2.7928460   0.0000000   2.7928460   2.7928460   0.0000000   2.7928460   2.7928460
 AtZNuc=   1.0000000   6.0000000   1.0000000   1.0000000   6.0000000   1.0000000   1.0000000
 Leave Link  101 at Thu Feb  7 14:11:48 2019, MaxMem=   104857600 cpu:               5.7 elap:               0.3
 (Enter /home/xinyan/g16/l103.exe)

 GradGradGradGradGradGradGradGradGradGradGradGradGradGradGradGradGradGrad
 Berny optimization.
 Initialization pass.
 Trust Radius=3.00D-01 FncErr=1.00D-07 GrdErr=1.00D-07 EigMax=2.50D+02 EigMin=1.00D-04
 Number of steps in this run=      2 maximum allowed number of steps=      2.
 GradGradGradGradGradGradGradGradGradGradGradGradGradGradGradGradGradGrad

 Leave Link  103 at Thu Feb  7 14:11:48 2019, MaxMem=   104857600 cpu:               1.6 elap:               0.1
 (Enter /home/xinyan/g16/l202.exe)
 Stoichiometry    C27H41N3O5S
 Framework group  C1[X(C27H41N3O5S)]
 Deg. of freedom   225
 Full point group                 C1      NOp   1
 Largest Abelian subgroup         C1      NOp   1
 Largest concise Abelian subgroup C1      NOp   1
                         Standard orientation:                         
 ---------------------------------------------------------------------
 Center     Atomic      Atomic             Coordinates (Angstroms)
 Number     Number       Type             X           Y           Z
 ---------------------------------------------------------------------
      1          6           0       -4.788205    0.450052   -0.516954
      2          6           0       -4.993459   -0.846699   -1.305815
      3          6           0       -3.675716   -1.319489   -1.932137
      4          6           0       -2.652882   -1.523924   -0.820688
      5          6           0       -2.404126   -0.204028   -0.046165
      6          6           0       -3.718071    0.291181    0.567909
      7          1           0       -3.812188   -2.248048   -2.496654
      8          1           0       -5.375935   -1.628954   -0.637033
      9          1           0       -5.742663   -0.702673   -2.090596
     10          1           0       -4.480454    1.244820   -1.209103
     11          1           0       -5.732830    0.766750   -0.062968
     12          1           0       -3.028120   -2.274269   -0.118074
     13          1           0       -2.086472    0.543417   -0.784396
     14          1           0       -4.059268   -0.418173    1.329297
     15          1           0       -3.524502    1.251735    1.057295
     16          1           0       -3.329892   -0.547343   -2.632616
     17          7           0       -1.336937   -2.018380   -1.276808
     18          6           0       -0.654531   -1.340982   -2.238617
     19          6           0       -0.638106   -2.811135   -0.421057
     20          6           0        0.700658   -1.396385   -2.343179
     21          1           0       -1.249833   -0.720676   -2.897322
     22          6           0        0.718731   -2.903782   -0.451645
     23          1           0       -1.225071   -3.311101    0.341876
     24          6           0        1.458105   -2.093288   -1.354278
     25          1           0        1.188508   -0.829443   -3.124509
     26          1           0        1.206918   -3.495005    0.309970
     27          7           0        2.780155   -1.991941   -1.280647
     28          6           0        3.516115   -2.450846   -0.092744
     29          1           0        3.396957   -3.529270    0.042945
     30          1           0        3.126024   -1.907501    0.780489
     31          6           0        3.506920   -0.919989   -1.975896
     32          1           0        3.748573   -1.233213   -2.999012
     33          1           0        2.878582   -0.025435   -1.993009
     34          7           0       -1.279688   -0.299815    0.871849
     35         16           0       -1.324219   -1.140164    2.269298
     36          8           0       -2.534379   -1.968010    2.267552
     37          8           0       -0.037177   -1.815724    2.452071
     38          6           0       -0.582708    2.679311    0.005462
     39          6           0       -0.110757    2.176089   -1.217272
     40          6           0       -0.890778    2.260790   -2.369133
     41          6           0       -2.159351    2.840086   -2.333869
     42          6           0       -2.641255    3.338573   -1.126618
     43          6           0       -1.855109    3.258406    0.023179
     44          1           0        0.846048    1.665876   -1.232963
     45          1           0       -0.497414    1.876398   -3.308095
     46          1           0       -2.760930    2.908668   -3.236074
     47          1           0       -3.626108    3.795128   -1.078000
     48          1           0       -2.239852    3.661147    0.958194
     49          8           0        0.717999    1.544941    1.868460
     50          1           0       -0.303015   -0.057180    0.554148
     51          6           0        1.869879    0.818803    1.240431
     52          8           0        1.479289    0.208449    0.142109
     53          8           0        2.245489   -0.060710    2.284343
     54          1           0        1.552724   -0.745582    2.299100
     55          6           0        3.064258    1.801467    1.132096
     56          1           0        3.001756    2.517983    1.961745
     57          1           0        3.964643    1.205944    1.328423
     58          6           0        0.251165    2.731747    1.289953
     59          1           0       -0.385976    3.194488    2.055135
     60          1           0        1.082955    3.433545    1.127230
     61          6           0       -1.453684    0.080203    3.555159
     62          1           0       -0.578442    0.726948    3.447630
     63          1           0       -2.382272    0.633941    3.405845
     64          1           0       -1.461990   -0.445334    4.511498
     65          6           0        3.244979    2.538153   -0.192140
     66          1           0        3.342224    1.807021   -1.002211
     67          1           0        2.361283    3.134167   -0.442213
     68          6           0        4.470664    3.449567   -0.162444
     69          1           0        4.619219    3.964925   -1.116378
     70          1           0        4.366209    4.211244    0.617311
     71          1           0        5.378897    2.878058    0.059479
     72          6           0        4.951666   -2.046123   -0.407330
     73          1           0        5.559713   -1.966037    0.495483
     74          1           0        5.413906   -2.780044   -1.076783
     75          6           0        4.758569   -0.705580   -1.119692
     76          1           0        4.542601    0.066484   -0.376643
     77          1           0        5.620691   -0.394484   -1.713354
 ---------------------------------------------------------------------
 Rotational constants (GHZ):           0.1540956           0.1010512           0.0907733
 Leave Link  202 at Thu Feb  7 14:11:48 2019, MaxMem=   104857600 cpu:               2.5 elap:               0.1
 (Enter /home/xinyan/g16/l301.exe)
 Standard basis: 6-31G(d) (6D, 7F)
 Ernie: Thresh=  0.10000D-02 Tol=  0.10000D-05 Strict=F.
 There are   626 symmetry adapted cartesian basis functions of A   symmetry.
 There are   626 symmetry adapted basis functions of A   symmetry.
   626 basis functions,  1196 primitive gaussians,   626 cartesian basis functions
   140 alpha electrons      140 beta electrons
       nuclear repulsion energy      4990.3791468722 Hartrees.
 IExCor= 4336 DFT=T Ex+Corr=M062X ExCW=0 ScaHFX=  0.540000
 ScaDFX=  1.000000  1.000000  1.000000  1.000000 ScalE2=  1.000000  1.000000
 IRadAn=      5 IRanWt=     -1 IRanGd=            0 ICorTp=0 IEmpDi=131
 NAtoms=   77 NActive=   77 NUniq=   77 SFac= 1.00D+00 NAtFMM=   60 NAOKFM=T Big=T
 Integral buffers will be    131072 words long.
 Raffenetti 2 integral format.
 Two-electron integral symmetry is turned on.
 R6Disp:  Grimme-D3 Dispersion energy=       -0.0108303111 Hartrees.
 Nuclear repulsion after empirical dispersion term =     4990.3683165610 Hartrees.
 Leave Link  301 at Thu Feb  7 14:11:49 2019, MaxMem=   104857600 cpu:               3.0 elap:               0.2
 (Enter /home/xinyan/g16/l302.exe)
 NPDir=0 NMtPBC=     1 NCelOv=     1 NCel=       1 NClECP=     1 NCelD=      1
         NCelK=      1 NCelE2=     1 NClLst=     1 CellRange=     0.0.
 One-electron integrals computed using PRISM.
 One-electron integral symmetry used in STVInt
 PrsmSu:  requested number of processors reduced to:  23 ShMem   1 Linda.
 NBasis=   626 RedAO= T EigKep=  4.43D-04  NBF=   626
 NBsUse=   626 1.00D-06 EigRej= -1.00D+00 NBFU=   626
 Precomputing XC quadrature grid using
 IXCGrd= 4 IRadAn=           5 IRanWt=          -1 IRanGd=           0 AccXCQ= 0.00D+00.
 Generated NRdTot=       0 NPtTot=           0 NUsed=           0 NTot=          32
 NSgBfM=   621   621   621   621   621 MxSgAt=    77 MxSgA2=    77.
 Leave Link  302 at Thu Feb  7 14:11:52 2019, MaxMem=   104857600 cpu:              82.5 elap:               3.6
 (Enter /home/xinyan/g16/l303.exe)
 DipDrv:  MaxL=1.
 Leave Link  303 at Thu Feb  7 14:11:53 2019, MaxMem=   104857600 cpu:               4.9 elap:               0.2
 (Enter /home/xinyan/g16/l401.exe)
 ExpMin= 1.17D-01 ExpMax= 2.19D+04 ExpMxC= 3.30D+03 IAcc=3 IRadAn=         5 AccDes= 0.00D+00
 Harris functional with IExCor= 1009 and IRadAn=       5 diagonalized for initial guess.
 HarFok:  IExCor= 1009 AccDes= 0.00D+00 IRadAn=         5 IDoV= 1 UseB2=F ITyADJ=14
 ICtDFT=  3500011 ScaDFX=  1.000000  1.000000  1.000000  1.000000
 FoFCou: FMM=F IPFlag=           0 FMFlag=      100000 FMFlg1=        2001
         NFxFlg=           0 DoJE=T BraDBF=F KetDBF=T FulRan=T
         wScrn=  0.000000 ICntrl=       500 IOpCl=  0 I1Cent=   200000004 NGrid=           0
         NMat0=    1 NMatS0=      1 NMatT0=    0 NMatD0=    1 NMtDS0=    0 NMtDT0=    0
 Petite list used in FoFCou.
 Harris En= -1990.52974485737    
 JPrj=0 DoOrth=F DoCkMO=F.
 Leave Link  401 at Thu Feb  7 14:11:57 2019, MaxMem=   104857600 cpu:              98.3 elap:               4.1
 (Enter /home/xinyan/g16/l502.exe)
 Integral symmetry usage will be decided dynamically.
 Closed shell SCF:
 Using DIIS extrapolation, IDIIS=  1040.
 NGot=   104857600 LenX=   104051656 LenY=   103659154
 Requested convergence on RMS density matrix=1.00D-08 within 128 cycles.
 Requested convergence on MAX density matrix=1.00D-06.
 Requested convergence on             energy=1.00D-06.
 No special actions if energy rises.
 Fock matrices will be formed incrementally for  20 cycles.
 Integral accuracy reduced to 1.0D-05 until final iterations.

 Cycle   1  Pass 0  IDiag  1:
 FoFJK:  IHMeth= 1 ICntrl=       0 DoSepK=F KAlg= 0 I1Cent=           0 FoldK=F
 IRaf= 990000000 NMat=       1 IRICut=       1 DoRegI=T DoRafI=F ISym2E= 0 IDoP0=0 IntGTp=1.
 FoFCou: FMM=T IPFlag=           0 FMFlag=      100000 FMFlg1=        2001
         NFxFlg=           0 DoJE=F BraDBF=F KetDBF=F FulRan=T
         wScrn=  0.000000 ICntrl=         0 IOpCl=  0 I1Cent=           0 NGrid=           0
         NMat0=    1 NMatS0=      1 NMatT0=    0 NMatD0=    1 NMtDS0=    0 NMtDT0=    0
 Symmetry not used in FoFCou.
 FMM levels:  10  Number of levels for PrismC:   9
 E= -1990.29882814179    
 DIIS: error= 2.21D-02 at cycle   1 NSaved=   1.
 NSaved= 1 IEnMin= 1 EnMin= -1990.29882814179     IErMin= 1 ErrMin= 2.21D-02
 ErrMax= 2.21D-02  0.00D+00 EMaxC= 1.00D-01 BMatC= 1.24D+00 BMatP= 1.24D+00
 IDIUse=3 WtCom= 7.79D-01 WtEn= 2.21D-01
 Coeff-Com:  0.100D+01
 Coeff-En:   0.100D+01
 Coeff:      0.100D+01
 Gap=     0.367 Goal=   None    Shift=    0.000
 GapD=    0.367 DampG=1.000 DampE=0.500 DampFc=0.5000 IDamp=-1.
 Damping current iteration by 5.00D-01
 RMSDP=3.44D-03 MaxDP=3.46D-01              OVMax= 1.97D-01

 Cycle   2  Pass 0  IDiag  1:
 RMSU=  1.71D-03    CP:  9.88D-01
 E= -1990.81175976865     Delta-E=       -0.512931626856 Rises=F Damp=T
 DIIS: error= 7.37D-03 at cycle   2 NSaved=   2.
 NSaved= 2 IEnMin= 2 EnMin= -1990.81175976865     IErMin= 2 ErrMin= 7.37D-03
 ErrMax= 7.37D-03  0.00D+00 EMaxC= 1.00D-01 BMatC= 9.28D-02 BMatP= 1.24D+00
 IDIUse=3 WtCom= 9.26D-01 WtEn= 7.37D-02
 Coeff-Com: -0.285D-01 0.103D+01
 Coeff-En:   0.000D+00 0.100D+01
 Coeff:     -0.264D-01 0.103D+01
 Gap=     0.261 Goal=   None    Shift=    0.000
 RMSDP=8.56D-04 MaxDP=7.79D-02 DE=-5.13D-01 OVMax= 1.15D-01

 Cycle   3  Pass 0  IDiag  1:
 RMSU=  8.46D-04    CP:  9.81D-01  9.45D-01
 E= -1991.31721926908     Delta-E=       -0.505459500436 Rises=F Damp=F
 DIIS: error= 6.62D-03 at cycle   3 NSaved=   3.
 NSaved= 3 IEnMin= 3 EnMin= -1991.31721926908     IErMin= 3 ErrMin= 6.62D-03
 ErrMax= 6.62D-03  0.00D+00 EMaxC= 1.00D-01 BMatC= 4.95D-02 BMatP= 9.28D-02
 IDIUse=3 WtCom= 9.34D-01 WtEn= 6.62D-02
 Coeff-Com: -0.711D-01 0.441D+00 0.631D+00
 Coeff-En:   0.000D+00 0.000D+00 0.100D+01
 Coeff:     -0.664D-01 0.411D+00 0.655D+00
 Gap=     0.245 Goal=   None    Shift=    0.000
 RMSDP=5.11D-04 MaxDP=3.67D-02 DE=-5.05D-01 OVMax= 6.02D-02

 Cycle   4  Pass 0  IDiag  1:
 RMSU=  3.38D-04    CP:  9.84D-01  1.05D+00  6.03D-01
 E= -1991.34765436321     Delta-E=       -0.030435094125 Rises=F Damp=F
 DIIS: error= 3.93D-03 at cycle   4 NSaved=   4.
 NSaved= 4 IEnMin= 4 EnMin= -1991.34765436321     IErMin= 4 ErrMin= 3.93D-03
 ErrMax= 3.93D-03  0.00D+00 EMaxC= 1.00D-01 BMatC= 1.20D-02 BMatP= 4.95D-02
 IDIUse=3 WtCom= 9.61D-01 WtEn= 3.93D-02
 Coeff-Com: -0.284D-01 0.915D-01 0.358D+00 0.579D+00
 Coeff-En:   0.000D+00 0.000D+00 0.206D+00 0.794D+00
 Coeff:     -0.273D-01 0.879D-01 0.352D+00 0.587D+00
 Gap=     0.227 Goal=   None    Shift=    0.000
 RMSDP=2.05D-04 MaxDP=1.42D-02 DE=-3.04D-02 OVMax= 2.78D-02

 Cycle   5  Pass 0  IDiag  1:
 RMSU=  8.60D-05    CP:  9.83D-01  1.04D+00  7.32D-01  5.62D-01
 E= -1991.35766295119     Delta-E=       -0.010008587984 Rises=F Damp=F
 DIIS: error= 1.01D-03 at cycle   5 NSaved=   5.
 NSaved= 5 IEnMin= 5 EnMin= -1991.35766295119     IErMin= 5 ErrMin= 1.01D-03
 ErrMax= 1.01D-03  0.00D+00 EMaxC= 1.00D-01 BMatC= 5.83D-04 BMatP= 1.20D-02
 IDIUse=3 WtCom= 9.90D-01 WtEn= 1.01D-02
 Coeff-Com: -0.934D-02 0.215D-01 0.134D+00 0.285D+00 0.569D+00
 Coeff-En:   0.000D+00 0.000D+00 0.000D+00 0.000D+00 0.100D+01
 Coeff:     -0.924D-02 0.212D-01 0.133D+00 0.282D+00 0.573D+00
 Gap=     0.228 Goal=   None    Shift=    0.000
 RMSDP=5.08D-05 MaxDP=3.72D-03 DE=-1.00D-02 OVMax= 8.79D-03

 Cycle   6  Pass 0  IDiag  1:
 RMSU=  2.71D-05    CP:  9.83D-01  1.04D+00  7.31D-01  6.34D-01  5.92D-01
 E= -1991.35816971657     Delta-E=       -0.000506765377 Rises=F Damp=F
 DIIS: error= 3.29D-04 at cycle   6 NSaved=   6.
 NSaved= 6 IEnMin= 6 EnMin= -1991.35816971657     IErMin= 6 ErrMin= 3.29D-04
 ErrMax= 3.29D-04  0.00D+00 EMaxC= 1.00D-01 BMatC= 5.82D-05 BMatP= 5.83D-04
 IDIUse=3 WtCom= 9.97D-01 WtEn= 3.29D-03
 EnCoef did     1 forward-backward iterations
 Coeff-Com: -0.182D-02 0.190D-02 0.302D-01 0.826D-01 0.293D+00 0.594D+00
 Coeff-En:   0.000D+00 0.000D+00 0.000D+00 0.000D+00 0.191D-02 0.998D+00
 Coeff:     -0.181D-02 0.189D-02 0.301D-01 0.823D-01 0.292D+00 0.595D+00
 Gap=     0.228 Goal=   None    Shift=    0.000
 RMSDP=1.49D-05 MaxDP=8.80D-04 DE=-5.07D-04 OVMax= 2.36D-03

 Cycle   7  Pass 0  IDiag  1:
 RMSU=  9.34D-06    CP:  9.83D-01  1.04D+00  7.34D-01  6.34D-01  6.76D-01
                    CP:  6.76D-01
 E= -1991.35822463580     Delta-E=       -0.000054919233 Rises=F Damp=F
 DIIS: error= 5.13D-05 at cycle   7 NSaved=   7.
 NSaved= 7 IEnMin= 7 EnMin= -1991.35822463580     IErMin= 7 ErrMin= 5.13D-05
 ErrMax= 5.13D-05  0.00D+00 EMaxC= 1.00D-01 BMatC= 3.88D-06 BMatP= 5.82D-05
 IDIUse=1 WtCom= 1.00D+00 WtEn= 0.00D+00
 Coeff-Com:  0.169D-03-0.133D-02-0.126D-02 0.601D-02 0.719D-01 0.256D+00
 Coeff-Com:  0.669D+00
 Coeff:      0.169D-03-0.133D-02-0.126D-02 0.601D-02 0.719D-01 0.256D+00
 Coeff:      0.669D+00
 Gap=     0.228 Goal=   None    Shift=    0.000
 RMSDP=4.44D-06 MaxDP=2.39D-04 DE=-5.49D-05 OVMax= 5.14D-04

 Initial convergence to 1.0D-05 achieved.  Increase integral accuracy.
 Cycle   8  Pass 1  IDiag  1:
 E= -1991.35824445257     Delta-E=       -0.000019816774 Rises=F Damp=F
 DIIS: error= 1.99D-04 at cycle   1 NSaved=   1.
 NSaved= 1 IEnMin= 1 EnMin= -1991.35824445257     IErMin= 1 ErrMin= 1.99D-04
 ErrMax= 1.99D-04  0.00D+00 EMaxC= 1.00D-01 BMatC= 1.33D-05 BMatP= 1.33D-05
 IDIUse=3 WtCom= 9.98D-01 WtEn= 1.99D-03
 Coeff-Com:  0.100D+01
 Coeff-En:   0.100D+01
 Coeff:      0.100D+01
 Gap=     0.228 Goal=   None    Shift=    0.000
 RMSDP=4.44D-06 MaxDP=2.39D-04 DE=-1.98D-05 OVMax= 4.68D-04

 Cycle   9  Pass 1  IDiag  1:
 RMSU=  7.32D-05    CP:  1.00D+00
 E= -1991.35825638332     Delta-E=       -0.000011930743 Rises=F Damp=F
 DIIS: error= 2.18D-05 at cycle   2 NSaved=   2.
 NSaved= 2 IEnMin= 2 EnMin= -1991.35825638332     IErMin= 2 ErrMin= 2.18D-05
 ErrMax= 2.18D-05  0.00D+00 EMaxC= 1.00D-01 BMatC= 7.83D-07 BMatP= 1.33D-05
 IDIUse=1 WtCom= 1.00D+00 WtEn= 0.00D+00
 Coeff-Com:  0.686D-01 0.931D+00
 Coeff:      0.686D-01 0.931D+00
 Gap=     0.228 Goal=   None    Shift=    0.000
 RMSDP=3.84D-06 MaxDP=2.04D-04 DE=-1.19D-05 OVMax= 3.54D-04

 Cycle  10  Pass 1  IDiag  1:
 RMSU=  3.24D-06    CP:  1.00D+00  1.03D+00
 E= -1991.35825603462     Delta-E=        0.000000348697 Rises=F Damp=F
 DIIS: error= 3.58D-05 at cycle   3 NSaved=   3.
 NSaved= 3 IEnMin= 2 EnMin= -1991.35825638332     IErMin= 2 ErrMin= 2.18D-05
 ErrMax= 3.58D-05  0.00D+00 EMaxC= 1.00D-01 BMatC= 1.23D-06 BMatP= 7.83D-07
 IDIUse=1 WtCom= 1.00D+00 WtEn= 0.00D+00
 Coeff-Com: -0.144D-01 0.562D+00 0.452D+00
 Coeff:     -0.144D-01 0.562D+00 0.452D+00
 Gap=     0.228 Goal=   None    Shift=    0.000
 RMSDP=1.82D-06 MaxDP=1.22D-04 DE= 3.49D-07 OVMax= 2.22D-04

 Cycle  11  Pass 1  IDiag  1:
 RMSU=  6.20D-07    CP:  1.00D+00  1.03D+00  4.80D-01
 E= -1991.35825706458     Delta-E=       -0.000001029965 Rises=F Damp=F
 DIIS: error= 4.05D-06 at cycle   4 NSaved=   4.
 NSaved= 4 IEnMin= 4 EnMin= -1991.35825706458     IErMin= 4 ErrMin= 4.05D-06
 ErrMax= 4.05D-06  0.00D+00 EMaxC= 1.00D-01 BMatC= 1.12D-08 BMatP= 7.83D-07
 IDIUse=1 WtCom= 1.00D+00 WtEn= 0.00D+00
 Coeff-Com: -0.805D-02 0.258D+00 0.218D+00 0.533D+00
 Coeff:     -0.805D-02 0.258D+00 0.218D+00 0.533D+00
 Gap=     0.228 Goal=   None    Shift=    0.000
 RMSDP=2.18D-07 MaxDP=1.20D-05 DE=-1.03D-06 OVMax= 3.50D-05

 Cycle  12  Pass 1  IDiag  1:
 RMSU=  1.93D-07    CP:  1.00D+00  1.03D+00  4.98D-01  8.67D-01
 E= -1991.35825707504     Delta-E=       -0.000000010458 Rises=F Damp=F
 DIIS: error= 1.48D-06 at cycle   5 NSaved=   5.
 NSaved= 5 IEnMin= 5 EnMin= -1991.35825707504     IErMin= 5 ErrMin= 1.48D-06
 ErrMax= 1.48D-06  0.00D+00 EMaxC= 1.00D-01 BMatC= 9.30D-10 BMatP= 1.12D-08
 IDIUse=1 WtCom= 1.00D+00 WtEn= 0.00D+00
 Coeff-Com: -0.106D-02 0.201D-01 0.187D-01 0.214D+00 0.748D+00
 Coeff:     -0.106D-02 0.201D-01 0.187D-01 0.214D+00 0.748D+00
 Gap=     0.228 Goal=   None    Shift=    0.000
 RMSDP=8.34D-08 MaxDP=4.82D-06 DE=-1.05D-08 OVMax= 9.79D-06

 Cycle  13  Pass 1  IDiag  1:
 RMSU=  6.42D-08    CP:  1.00D+00  1.03D+00  4.99D-01  9.38D-01  8.65D-01
 E= -1991.35825707588     Delta-E=       -0.000000000839 Rises=F Damp=F
 DIIS: error= 4.77D-07 at cycle   6 NSaved=   6.
 NSaved= 6 IEnMin= 6 EnMin= -1991.35825707588     IErMin= 6 ErrMin= 4.77D-07
 ErrMax= 4.77D-07  0.00D+00 EMaxC= 1.00D-01 BMatC= 2.38D-10 BMatP= 9.30D-10
 IDIUse=1 WtCom= 1.00D+00 WtEn= 0.00D+00
 Coeff-Com:  0.740D-03-0.311D-01-0.259D-01 0.369D-01 0.411D+00 0.609D+00
 Coeff:      0.740D-03-0.311D-01-0.259D-01 0.369D-01 0.411D+00 0.609D+00
 Gap=     0.228 Goal=   None    Shift=    0.000
 RMSDP=3.50D-08 MaxDP=1.89D-06 DE=-8.39D-10 OVMax= 5.16D-06

 Cycle  14  Pass 1  IDiag  1:
 RMSU=  2.46D-08    CP:  1.00D+00  1.03D+00  4.99D-01  9.58D-01  9.47D-01
                    CP:  7.83D-01
 E= -1991.35825707610     Delta-E=       -0.000000000216 Rises=F Damp=F
 DIIS: error= 1.45D-07 at cycle   7 NSaved=   7.
 NSaved= 7 IEnMin= 7 EnMin= -1991.35825707610     IErMin= 7 ErrMin= 1.45D-07
 ErrMax= 1.45D-07  0.00D+00 EMaxC= 1.00D-01 BMatC= 1.55D-11 BMatP= 2.38D-10
 IDIUse=1 WtCom= 1.00D+00 WtEn= 0.00D+00
 Coeff-Com:  0.404D-03-0.150D-01-0.129D-01 0.640D-03 0.114D+00 0.267D+00
 Coeff-Com:  0.646D+00
 Coeff:      0.404D-03-0.150D-01-0.129D-01 0.640D-03 0.114D+00 0.267D+00
 Coeff:      0.646D+00
 Gap=     0.228 Goal=   None    Shift=    0.000
 RMSDP=9.20D-09 MaxDP=5.17D-07 DE=-2.16D-10 OVMax= 1.49D-06

 SCF Done:  E(RM062X) =  -1991.35825708     A.U. after   14 cycles
            NFock= 14  Conv=0.92D-08     -V/T= 2.0076
 KE= 1.976420502691D+03 PE=-1.463304961000D+04 EE= 5.674902533672D+03
 Leave Link  502 at Thu Feb  7 14:14:27 2019, MaxMem=   104857600 cpu:            3605.4 elap:             150.8
 (Enter /home/xinyan/g16/l601.exe)
 Copying SCF densities to generalized density rwf, IOpCl= 0 IROHF=0.

 **********************************************************************

            Population analysis using the SCF density.

 **********************************************************************

 Orbital symmetries:
       Occupied  (A) (A) (A) (A) (A) (A) (A) (A) (A) (A) (A) (A)
                 (A) (A) (A) (A) (A) (A) (A) (A) (A) (A) (A) (A)
                 (A) (A) (A) (A) (A) (A) (A) (A) (A) (A) (A) (A)
                 (A) (A) (A) (A) (A) (A) (A) (A) (A) (A) (A) (A)
                 (A) (A) (A) (A) (A) (A) (A) (A) (A) (A) (A) (A)
                 (A) (A) (A) (A) (A) (A) (A) (A) (A) (A) (A) (A)
                 (A) (A) (A) (A) (A) (A) (A) (A) (A) (A) (A) (A)
                 (A) (A) (A) (A) (A) (A) (A) (A) (A) (A) (A) (A)
                 (A) (A) (A) (A) (A) (A) (A) (A) (A) (A) (A) (A)
                 (A) (A) (A) (A) (A) (A) (A) (A) (A) (A) (A) (A)
                 (A) (A) (A) (A) (A) (A) (A) (A) (A) (A) (A) (A)
                 (A) (A) (A) (A) (A) (A) (A) (A)
       Virtual   (A) (A) (A) (A) (A) (A) (A) (A) (A) (A) (A) (A)
                 (A) (A) (A) (A) (A) (A) (A) (A) (A) (A) (A) (A)
                 (A) (A) (A) (A) (A) (A) (A) (A) (A) (A) (A) (A)
                 (A) (A) (A) (A) (A) (A) (A) (A) (A) (A) (A) (A)
                 (A) (A) (A) (A) (A) (A) (A) (A) (A) (A) (A) (A)
                 (A) (A) (A) (A) (A) (A) (A) (A) (A) (A) (A) (A)
                 (A) (A) (A) (A) (A) (A) (A) (A) (A) (A) (A) (A)
                 (A) (A) (A) (A) (A) (A) (A) (A) (A) (A) (A) (A)
                 (A) (A) (A) (A) (A) (A) (A) (A) (A) (A) (A) (A)
                 (A) (A) (A) (A) (A) (A) (A) (A) (A) (A) (A) (A)
                 (A) (A) (A) (A) (A) (A) (A) (A) (A) (A) (A) (A)
                 (A) (A) (A) (A) (A) (A) (A) (A) (A) (A) (A) (A)
                 (A) (A) (A) (A) (A) (A) (A) (A) (A) (A) (A) (A)
                 (A) (A) (A) (A) (A) (A) (A) (A) (A) (A) (A) (A)
                 (A) (A) (A) (A) (A) (A) (A) (A) (A) (A) (A) (A)
                 (A) (A) (A) (A) (A) (A) (A) (A) (A) (A) (A) (A)
                 (A) (A) (A) (A) (A) (A) (A) (A) (A) (A) (A) (A)
                 (A) (A) (A) (A) (A) (A) (A) (A) (A) (A) (A) (A)
                 (A) (A) (A) (A) (A) (A) (A) (A) (A) (A) (A) (A)
                 (A) (A) (A) (A) (A) (A) (A) (A) (A) (A) (A) (A)
                 (A) (A) (A) (A) (A) (A) (A) (A) (A) (A) (A) (A)
                 (A) (A) (A) (A) (A) (A) (A) (A) (A) (A) (A) (A)
                 (A) (A) (A) (A) (A) (A) (A) (A) (A) (A) (A) (A)
                 (A) (A) (A) (A) (A) (A) (A) (A) (A) (A) (A) (A)
                 (A) (A) (A) (A) (A) (A) (A) (A) (A) (A) (A) (A)
                 (A) (A) (A) (A) (A) (A) (A) (A) (A) (A) (A) (A)
                 (A) (A) (A) (A) (A) (A) (A) (A) (A) (A) (A) (A)
                 (A) (A) (A) (A) (A) (A) (A) (A) (A) (A) (A) (A)
                 (A) (A) (A) (A) (A) (A) (A) (A) (A) (A) (A) (A)
                 (A) (A) (A) (A) (A) (A) (A) (A) (A) (A) (A) (A)
                 (A) (A) (A) (A) (A) (A) (A) (A) (A) (A) (A) (A)
                 (A) (A) (A) (A) (A) (A) (A) (A) (A) (A) (A) (A)
                 (A) (A) (A) (A) (A) (A) (A) (A) (A) (A) (A) (A)
                 (A) (A) (A) (A) (A) (A) (A) (A) (A) (A) (A) (A)
                 (A) (A) (A) (A) (A) (A) (A) (A) (A) (A) (A) (A)
                 (A) (A) (A) (A) (A) (A) (A) (A) (A) (A) (A) (A)
                 (A) (A) (A) (A) (A) (A) (A) (A) (A) (A) (A) (A)
                 (A) (A) (A) (A) (A) (A) (A) (A) (A) (A) (A) (A)
                 (A) (A) (A) (A) (A) (A) (A) (A) (A) (A) (A) (A)
                 (A) (A) (A) (A) (A) (A) (A) (A) (A) (A) (A) (A)
                 (A) (A) (A) (A) (A) (A)
 The electronic state is 1-A.
 Alpha  occ. eigenvalues --  -90.14237 -19.61835 -19.61807 -19.58635 -19.56684
 Alpha  occ. eigenvalues --  -19.51184 -14.85191 -14.80436 -14.75889 -10.63421
 Alpha  occ. eigenvalues --  -10.62789 -10.62224 -10.62207 -10.60763 -10.59406
 Alpha  occ. eigenvalues --  -10.58392 -10.58004 -10.57969 -10.57178 -10.56888
 Alpha  occ. eigenvalues --  -10.56712 -10.55681 -10.55627 -10.55100 -10.54853
 Alpha  occ. eigenvalues --  -10.54821 -10.54788 -10.54739 -10.54588 -10.54410
 Alpha  occ. eigenvalues --  -10.54356 -10.54332 -10.53059 -10.51450 -10.51409
 Alpha  occ. eigenvalues --  -10.49660  -8.45213  -6.37431  -6.37407  -6.37249
 Alpha  occ. eigenvalues --   -1.22058  -1.13594  -1.13444  -1.10312  -1.09338
 Alpha  occ. eigenvalues --   -1.05844  -1.01810  -0.99287  -0.95770  -0.94996
 Alpha  occ. eigenvalues --   -0.93512  -0.90313  -0.88760  -0.85951  -0.85745
 Alpha  occ. eigenvalues --   -0.84825  -0.84727  -0.84210  -0.83061  -0.82731
 Alpha  occ. eigenvalues --   -0.76677  -0.76240  -0.75829  -0.74333  -0.72831
 Alpha  occ. eigenvalues --   -0.71675  -0.68329  -0.68214  -0.67940  -0.67239
 Alpha  occ. eigenvalues --   -0.66734  -0.65244  -0.64867  -0.63532  -0.60543
 Alpha  occ. eigenvalues --   -0.60404  -0.59771  -0.59102  -0.57803  -0.57616
 Alpha  occ. eigenvalues --   -0.57198  -0.56446  -0.55800  -0.55166  -0.54209
 Alpha  occ. eigenvalues --   -0.53570  -0.52672  -0.52487  -0.52468  -0.51904
 Alpha  occ. eigenvalues --   -0.51556  -0.51004  -0.50691  -0.49891  -0.49527
 Alpha  occ. eigenvalues --   -0.49164  -0.48854  -0.48212  -0.48139  -0.47985
 Alpha  occ. eigenvalues --   -0.47693  -0.47479  -0.46929  -0.46418  -0.46103
 Alpha  occ. eigenvalues --   -0.44891  -0.44741  -0.44165  -0.43858  -0.43267
 Alpha  occ. eigenvalues --   -0.42536  -0.42156  -0.41380  -0.41290  -0.41088
 Alpha  occ. eigenvalues --   -0.40906  -0.40500  -0.39992  -0.39792  -0.39277
 Alpha  occ. eigenvalues --   -0.39248  -0.39081  -0.38431  -0.37998  -0.37616
 Alpha  occ. eigenvalues --   -0.37389  -0.36750  -0.36547  -0.35777  -0.34918
 Alpha  occ. eigenvalues --   -0.34396  -0.33997  -0.31667  -0.31139  -0.29777
 Alpha  occ. eigenvalues --   -0.28869  -0.28605  -0.27666  -0.24766  -0.24356
 Alpha virt. eigenvalues --   -0.01529   0.00392   0.03537   0.03743   0.10130
 Alpha virt. eigenvalues --    0.10957   0.11639   0.12237   0.13160   0.13483
 Alpha virt. eigenvalues --    0.14224   0.14547   0.14756   0.15221   0.15600
 Alpha virt. eigenvalues --    0.16051   0.16825   0.16949   0.17188   0.17704
 Alpha virt. eigenvalues --    0.18054   0.18319   0.18453   0.18799   0.18962
 Alpha virt. eigenvalues --    0.19291   0.19748   0.19945   0.20113   0.20264
 Alpha virt. eigenvalues --    0.20647   0.20951   0.21079   0.21541   0.21640
 Alpha virt. eigenvalues --    0.22120   0.22545   0.22841   0.23348   0.23717
 Alpha virt. eigenvalues --    0.23882   0.24220   0.24580   0.24720   0.24881
 Alpha virt. eigenvalues --    0.25278   0.25469   0.25917   0.26320   0.26804
 Alpha virt. eigenvalues --    0.27079   0.27797   0.27865   0.28583   0.28985
 Alpha virt. eigenvalues --    0.29355   0.29468   0.29770   0.30776   0.30925
 Alpha virt. eigenvalues --    0.31288   0.31602   0.32108   0.32546   0.33102
 Alpha virt. eigenvalues --    0.33624   0.34552   0.35270   0.35472   0.35816
 Alpha virt. eigenvalues --    0.36543   0.37388   0.37685   0.37974   0.38837
 Alpha virt. eigenvalues --    0.39944   0.40404   0.40733   0.42816   0.43242
 Alpha virt. eigenvalues --    0.44418   0.44704   0.47027   0.48048   0.48815
 Alpha virt. eigenvalues --    0.49788   0.51172   0.52697   0.53422   0.54940
 Alpha virt. eigenvalues --    0.55149   0.55344   0.56022   0.56572   0.56904
 Alpha virt. eigenvalues --    0.57508   0.58290   0.58606   0.58869   0.59494
 Alpha virt. eigenvalues --    0.59550   0.59905   0.60392   0.60493   0.60561
 Alpha virt. eigenvalues --    0.61146   0.61431   0.62376   0.62597   0.62879
 Alpha virt. eigenvalues --    0.63738   0.64040   0.64534   0.64977   0.65598
 Alpha virt. eigenvalues --    0.66039   0.66567   0.66968   0.67469   0.67913
 Alpha virt. eigenvalues --    0.68354   0.69001   0.69074   0.69987   0.70635
 Alpha virt. eigenvalues --    0.71035   0.71451   0.71773   0.72936   0.73470
 Alpha virt. eigenvalues --    0.73616   0.74280   0.74736   0.74914   0.75765
 Alpha virt. eigenvalues --    0.76577   0.77286   0.77814   0.78673   0.79046
 Alpha virt. eigenvalues --    0.79474   0.79891   0.80218   0.80920   0.81257
 Alpha virt. eigenvalues --    0.81758   0.82103   0.82795   0.83948   0.84606
 Alpha virt. eigenvalues --    0.84836   0.85343   0.85714   0.86075   0.87072
 Alpha virt. eigenvalues --    0.87753   0.88427   0.88995   0.89428   0.89557
 Alpha virt. eigenvalues --    0.89746   0.90114   0.90575   0.91067   0.91257
 Alpha virt. eigenvalues --    0.91668   0.92248   0.92798   0.92987   0.93244
 Alpha virt. eigenvalues --    0.93624   0.94183   0.94682   0.95063   0.95323
 Alpha virt. eigenvalues --    0.95815   0.96107   0.96672   0.96788   0.97010
 Alpha virt. eigenvalues --    0.97270   0.97885   0.98109   0.98387   0.98452
 Alpha virt. eigenvalues --    0.99162   0.99534   0.99791   1.00479   1.00868
 Alpha virt. eigenvalues --    1.01315   1.01881   1.02262   1.02707   1.03032
 Alpha virt. eigenvalues --    1.03196   1.04204   1.04507   1.04602   1.05755
 Alpha virt. eigenvalues --    1.05959   1.07000   1.07688   1.08328   1.09165
 Alpha virt. eigenvalues --    1.10291   1.10749   1.11583   1.11661   1.11890
 Alpha virt. eigenvalues --    1.13381   1.13583   1.14699   1.15037   1.15632
 Alpha virt. eigenvalues --    1.16861   1.17718   1.18346   1.18626   1.18958
 Alpha virt. eigenvalues --    1.19909   1.20769   1.21042   1.21712   1.22119
 Alpha virt. eigenvalues --    1.22378   1.23631   1.24112   1.24919   1.25584
 Alpha virt. eigenvalues --    1.26055   1.27768   1.28734   1.29422   1.30444
 Alpha virt. eigenvalues --    1.31376   1.31471   1.32136   1.32746   1.33676
 Alpha virt. eigenvalues --    1.33904   1.34428   1.35182   1.36251   1.37080
 Alpha virt. eigenvalues --    1.37221   1.38386   1.39062   1.40521   1.41273
 Alpha virt. eigenvalues --    1.41798   1.42427   1.43620   1.44508   1.46301
 Alpha virt. eigenvalues --    1.47375   1.47931   1.48425   1.49189   1.49838
 Alpha virt. eigenvalues --    1.51085   1.51878   1.52435   1.52812   1.54430
 Alpha virt. eigenvalues --    1.54881   1.55089   1.55990   1.57190   1.57234
 Alpha virt. eigenvalues --    1.57479   1.58471   1.60482   1.60972   1.61230
 Alpha virt. eigenvalues --    1.61888   1.62789   1.63535   1.65559   1.67452
 Alpha virt. eigenvalues --    1.69046   1.69663   1.70193   1.72073   1.72641
 Alpha virt. eigenvalues --    1.74225   1.74737   1.75926   1.77214   1.77850
 Alpha virt. eigenvalues --    1.78523   1.79548   1.80439   1.80976   1.81937
 Alpha virt. eigenvalues --    1.84327   1.84502   1.85193   1.85780   1.85842
 Alpha virt. eigenvalues --    1.86334   1.87105   1.87611   1.87921   1.88908
 Alpha virt. eigenvalues --    1.89892   1.90076   1.90315   1.90879   1.91910
 Alpha virt. eigenvalues --    1.92689   1.93764   1.94240   1.94693   1.94884
 Alpha virt. eigenvalues --    1.95410   1.95943   1.96549   1.97118   1.97704
 Alpha virt. eigenvalues --    1.98703   1.99071   1.99325   2.00009   2.00884
 Alpha virt. eigenvalues --    2.01817   2.02146   2.02374   2.02751   2.04181
 Alpha virt. eigenvalues --    2.04623   2.06098   2.06292   2.07030   2.07377
 Alpha virt. eigenvalues --    2.07646   2.08375   2.08792   2.09268   2.09463
 Alpha virt. eigenvalues --    2.09883   2.10625   2.11770   2.11990   2.12907
 Alpha virt. eigenvalues --    2.12958   2.14252   2.14396   2.15205   2.15865
 Alpha virt. eigenvalues --    2.16218   2.16562   2.17208   2.18787   2.19025
 Alpha virt. eigenvalues --    2.19924   2.20297   2.20723   2.21483   2.22344
 Alpha virt. eigenvalues --    2.23140   2.23410   2.23682   2.23761   2.24565
 Alpha virt. eigenvalues --    2.25418   2.25787   2.26351   2.27474   2.28378
 Alpha virt. eigenvalues --    2.29029   2.30156   2.30773   2.30974   2.31405
 Alpha virt. eigenvalues --    2.32229   2.33965   2.34646   2.35172   2.35608
 Alpha virt. eigenvalues --    2.36036   2.37439   2.37562   2.38549   2.38776
 Alpha virt. eigenvalues --    2.38996   2.40355   2.41003   2.41453   2.42723
 Alpha virt. eigenvalues --    2.43338   2.44423   2.45407   2.46085   2.47037
 Alpha virt. eigenvalues --    2.49484   2.50551   2.51825   2.52239   2.52732
 Alpha virt. eigenvalues --    2.54268   2.54464   2.55952   2.56961   2.59948
 Alpha virt. eigenvalues --    2.60896   2.61837   2.62315   2.63213   2.63838
 Alpha virt. eigenvalues --    2.64656   2.64801   2.65691   2.67210   2.68309
 Alpha virt. eigenvalues --    2.68860   2.69585   2.70298   2.71692   2.72770
 Alpha virt. eigenvalues --    2.73523   2.74460   2.76231   2.76678   2.77551
 Alpha virt. eigenvalues --    2.79530   2.80240   2.80597   2.80766   2.81588
 Alpha virt. eigenvalues --    2.83492   2.85404   2.86149   2.87084   2.88381
 Alpha virt. eigenvalues --    2.89236   2.91047   2.92536   2.93940   2.96898
 Alpha virt. eigenvalues --    2.99677   3.00343   3.03120   3.05257   3.10561
 Alpha virt. eigenvalues --    3.14744   3.16392   3.23871   3.41306   3.42772
 Alpha virt. eigenvalues --    3.96454   4.02069   4.04715   4.09402   4.10963
 Alpha virt. eigenvalues --    4.15669   4.17060   4.17937   4.18643   4.19649
 Alpha virt. eigenvalues --    4.21046   4.23084   4.24449   4.26483   4.27605
 Alpha virt. eigenvalues --    4.29624   4.32593   4.33180   4.34576   4.35128
 Alpha virt. eigenvalues --    4.40045   4.40764   4.41871   4.43722   4.47312
 Alpha virt. eigenvalues --    4.49576   4.55693   4.58169   4.59292   4.61378
 Alpha virt. eigenvalues --    4.63833   4.66161   4.73703   4.75638   4.76769
 Alpha virt. eigenvalues --    4.80186
          Condensed to atoms (all electrons):
 Mulliken charges:
               1
     1  C   -0.306293
     2  C   -0.307195
     3  C   -0.309151
     4  C   -0.060324
     5  C    0.056322
     6  C   -0.311258
     7  H    0.174114
     8  H    0.162910
     9  H    0.165623
    10  H    0.150935
    11  H    0.163524
    12  H    0.209120
    13  H    0.173305
    14  H    0.193376
    15  H    0.163564
    16  H    0.154403
    17  N   -0.430760
    18  C    0.067370
    19  C    0.064187
    20  C   -0.201503
    21  H    0.206297
    22  C   -0.209457
    23  H    0.244965
    24  C    0.445857
    25  H    0.192202
    26  H    0.211461
    27  N   -0.525698
    28  C   -0.170411
    29  H    0.169736
    30  H    0.228595
    31  C   -0.154732
    32  H    0.165129
    33  H    0.206619
    34  N   -0.814721
    35  S    1.252634
    36  O   -0.611373
    37  O   -0.605468
    38  C    0.083299
    39  C   -0.185433
    40  C   -0.189936
    41  C   -0.171461
    42  C   -0.163762
    43  C   -0.211949
    44  H    0.213148
    45  H    0.140465
    46  H    0.154940
    47  H    0.158599
    48  H    0.152461
    49  O   -0.551994
    50  H    0.448034
    51  C    0.723575
    52  O   -0.721108
    53  O   -0.717769
    54  H    0.443970
    55  C   -0.338454
    56  H    0.148435
    57  H    0.151218
    58  C   -0.090373
    59  H    0.139423
    60  H    0.147838
    61  C   -0.663407
    62  H    0.274448
    63  H    0.196405
    64  H    0.217705
    65  C   -0.291917
    66  H    0.134662
    67  H    0.146160
    68  C   -0.473278
    69  H    0.148769
    70  H    0.154174
    71  H    0.145573
    72  C   -0.331976
    73  H    0.186938
    74  H    0.162838
    75  C   -0.342958
    76  H    0.197855
    77  H    0.170937
 Sum of Mulliken charges =  -0.00000
 Mulliken charges with hydrogens summed into heavy atoms:
               1
     1  C    0.008166
     2  C    0.021338
     3  C    0.019367
     4  C    0.148796
     5  C    0.229627
     6  C    0.045682
    17  N   -0.430760
    18  C    0.273667
    19  C    0.309152
    20  C   -0.009302
    22  C    0.002005
    24  C    0.445857
    27  N   -0.525698
    28  C    0.227920
    31  C    0.217016
    34  N   -0.366687
    35  S    1.252634
    36  O   -0.611373
    37  O   -0.605468
    38  C    0.083299
    39  C    0.027715
    40  C   -0.049471
    41  C   -0.016521
    42  C   -0.005163
    43  C   -0.059488
    49  O   -0.551994
    51  C    0.723575
    52  O   -0.721108
    53  O   -0.273799
    55  C   -0.038801
    58  C    0.196887
    61  C    0.025152
    65  C   -0.011095
    68  C   -0.024761
    72  C    0.017800
    75  C    0.025834
 Electronic spatial extent (au):  <R**2>=          14340.3825
 Charge=              0.0000 electrons
 Dipole moment (field-independent basis, Debye):
    X=             -2.6434    Y=             -1.9780    Z=             -6.3184  Tot=              7.1290
 Quadrupole moment (field-independent basis, Debye-Ang):
   XX=           -205.9349   YY=           -222.5434   ZZ=           -220.0326
   XY=            -12.4881   XZ=             -5.2075   YZ=             10.0741
 Traceless Quadrupole moment (field-independent basis, Debye-Ang):
   XX=             10.2354   YY=             -6.3731   ZZ=             -3.8623
   XY=            -12.4881   XZ=             -5.2075   YZ=             10.0741
 Octapole moment (field-independent basis, Debye-Ang**2):
  XXX=             13.4711  YYY=            -52.4220  ZZZ=             11.5962  XYY=              9.1187
  XXY=            -25.0892  XXZ=            -39.0595  XZZ=            -23.8163  YZZ=             13.2019
  YYZ=             18.5439  XYZ=            -19.2015
 Hexadecapole moment (field-independent basis, Debye-Ang**3):
 XXXX=          -9826.1540 YYYY=          -5442.8752 ZZZZ=          -3548.4472 XXXY=           -204.1829
 XXXZ=             -9.5769 YYYX=            -74.7118 YYYZ=             54.2078 ZZZX=           -103.7766
 ZZZY=             -4.0232 XXYY=          -2555.5915 XXZZ=          -2319.6284 YYZZ=          -1602.9198
 XXYZ=             46.1926 YYXZ=             49.5635 ZZXY=            -52.5458
 N-N= 4.990368316561D+03 E-N=-1.463304965188D+04  KE= 1.976420502691D+03
 No NMR shielding tensors so no spin-rotation constants.
 Leave Link  601 at Thu Feb  7 14:14:29 2019, MaxMem=   104857600 cpu:              35.5 elap:               1.6
 (Enter /home/xinyan/g16/l701.exe)
 ... and contract with generalized density number  0.
 Compute integral first derivatives.
 R6Disp: Adding Grimme-D3 dispersion energy 1st derivatives to the gradient.
 Leave Link  701 at Thu Feb  7 14:14:30 2019, MaxMem=   104857600 cpu:              24.8 elap:               1.1
 (Enter /home/xinyan/g16/l702.exe)
 L702 exits ... SP integral derivatives will be done elsewhere.
 Leave Link  702 at Thu Feb  7 14:14:30 2019, MaxMem=   104857600 cpu:               1.4 elap:               0.1
 (Enter /home/xinyan/g16/l703.exe)
 Integral derivatives from FoFJK, PRISM(SPDF).
 Compute integral first derivatives, UseDBF=F ICtDFT=           0.
 Calling FoFJK, ICntrl=      2127 FMM=T ISym2X=0 I1Cent= 0 IOpClX= 0 NMat=1 NMatS=1 NMatT=0.
 FoFJK:  IHMeth= 1 ICntrl=    2127 DoSepK=F KAlg= 0 I1Cent=           0 FoldK=F
 IRaf=         0 NMat=       1 IRICut=       1 DoRegI=T DoRafI=F ISym2E= 0 IDoP0=0 IntGTp=1.
 FoFCou: FMM=T IPFlag=           0 FMFlag=      100000 FMFlg1=        2001
         NFxFlg=           0 DoJE=F BraDBF=F KetDBF=F FulRan=T
         wScrn=  0.000000 ICntrl=      2127 IOpCl=  0 I1Cent=           0 NGrid=           0
         NMat0=    1 NMatS0=      1 NMatT0=    0 NMatD0=    1 NMtDS0=    0 NMtDT0=    0
 Symmetry not used in FoFCou.
 FMM levels:  10  Number of levels for PrismC:   9
 Leave Link  703 at Thu Feb  7 14:15:06 2019, MaxMem=   104857600 cpu:             821.0 elap:              35.6
 (Enter /home/xinyan/g16/l716.exe)
 Dipole        =-1.03999021D+00-7.78218669D-01-2.48584528D+00
 ***** Axes restored to original set *****
 -------------------------------------------------------------------
 Center     Atomic                   Forces (Hartrees/Bohr)
 Number     Number              X              Y              Z
 -------------------------------------------------------------------
      1        6           0.000010384   -0.000015796   -0.000009404
      2        6           0.000022781    0.000013275    0.000019131
      3        6           0.000023345    0.000010384    0.000003533
      4        6           0.000026764    0.000008415   -0.000023102
      5        6           0.000027677   -0.000008572   -0.000034817
      6        6          -0.000002136   -0.000003651    0.000009311
      7        1           0.000016502    0.000014073   -0.000029489
      8        1           0.000008747    0.000001622   -0.000033742
      9        1           0.000019015    0.000015367   -0.000018241
     10        1           0.000018608    0.000035850   -0.000020251
     11        1           0.000010655   -0.000009650   -0.000001553
     12        1           0.000009805   -0.000047549    0.000039273
     13        1           0.000013740   -0.000007944    0.000003686
     14        1           0.000006244   -0.000027590   -0.000006611
     15        1           0.000023765   -0.000018230    0.000003321
     16        1           0.000010978    0.000014558   -0.000025908
     17        7           0.000008460    0.000031648   -0.000024775
     18        6           0.000005433   -0.000020231   -0.000011318
     19        6           0.000000818    0.000005005    0.000014870
     20        6           0.000013527   -0.000006160   -0.000014634
     21        1           0.000016888   -0.000002428   -0.000012304
     22        6           0.000017156   -0.000005459    0.000025424
     23        1           0.000000007   -0.000003826   -0.000025372
     24        6           0.000010669   -0.000017401    0.000014497
     25        1           0.000021235    0.000000869   -0.000001601
     26        1           0.000013002    0.000011852    0.000013126
     27        7           0.000018089    0.000035930    0.000004711
     28        6           0.000001877    0.000025204    0.000039691
     29        1           0.000007024    0.000032308    0.000049781
     30        1           0.000004187    0.000042918    0.000025797
     31        6           0.000002446   -0.000004779   -0.000005842
     32        1           0.000017516   -0.000008197    0.000021928
     33        1           0.000001663    0.000041667    0.000030588
     34        7          -0.000038288   -0.000020031   -0.000012714
     35       16           0.000018484   -0.000032939   -0.000020610
     36        8           0.000015412   -0.000039070   -0.000069834
     37        8           0.000002367   -0.000012868   -0.000020802
     38        6          -0.000013276    0.000021884    0.000023204
     39        6          -0.000036684    0.000057399    0.000029912
     40        6          -0.000042325    0.000038969    0.000031600
     41        6          -0.000025847    0.000024699    0.000045398
     42        6          -0.000031916    0.000001569    0.000054460
     43        6          -0.000024377    0.000023009    0.000036784
     44        1          -0.000009145    0.000012790   -0.000009290
     45        1          -0.000030284    0.000061500    0.000018270
     46        1          -0.000035651    0.000036310    0.000046618
     47        1          -0.000016007    0.000004048    0.000052356
     48        1          -0.000021930   -0.000007308    0.000029147
     49        8           0.000115272   -0.000019846   -0.000099262
     50        1          -0.000008565   -0.000063970   -0.000042487
     51        6          -0.000235936    0.000050660    0.000071719
     52        8          -0.000027553    0.000050626    0.000070587
     53        8           0.000090727    0.000029376   -0.000004130
     54        1          -0.000047599    0.000005518    0.000037055
     55        6           0.000043600    0.000129636    0.000106018
     56        1          -0.000015272   -0.000119219   -0.000156270
     57        1          -0.000048226   -0.000002429   -0.000016273
     58        6          -0.000002037    0.000008850    0.000052945
     59        1          -0.000004559    0.000040589    0.000015708
     60        1          -0.000004690   -0.000019108    0.000007701
     61        6          -0.000042887   -0.000016894    0.000027186
     62        1           0.000004041    0.000031988   -0.000020467
     63        1          -0.000033319   -0.000034482   -0.000016731
     64        1          -0.000031203   -0.000017942   -0.000013327
     65        6           0.000077351    0.000063151    0.000228024
     66        1          -0.000138295   -0.000316911   -0.000349057
     67        1          -0.000145709    0.000146836    0.000005846
     68        6          -0.000062071   -0.000187812   -0.000325096
     69        1           0.000028950   -0.000116458   -0.000097839
     70        1           0.000169066    0.000182483    0.000204944
     71        1           0.000159492   -0.000275251   -0.000103919
     72        6           0.000004052    0.000037767    0.000024218
     73        1          -0.000009777    0.000054106    0.000046150
     74        1           0.000009613    0.000028868    0.000068333
     75        6          -0.000010974   -0.000018074    0.000028528
     76        1           0.000040907    0.000042139   -0.000015951
     77        1           0.000008194    0.000002361    0.000011648
 -------------------------------------------------------------------
 Cartesian Forces:  Max     0.000349057 RMS     0.000066863
 Z-matrix is all fixed cartesians, so copy forces.
 Leave Link  716 at Thu Feb  7 14:15:06 2019, MaxMem=   104857600 cpu:               2.4 elap:               0.1
 (Enter /home/xinyan/g16/l103.exe)

 GradGradGradGradGradGradGradGradGradGradGradGradGradGradGradGradGradGrad
 Berny optimization.
 Search for a local minimum.
 Step number   1 out of a maximum of    2
 All quantities printed in internal units (Hartrees-Bohrs-Radians)
 Second derivative matrix not updated -- first step.
 ITU=  0
     Eigenvalues ---    0.00000   0.00000   0.00000   0.00000   0.00000
     Eigenvalues ---    0.00000   0.00006   0.00012   0.00018   0.00021
     Eigenvalues ---    0.00037   0.00038   0.00084   0.00094   0.00114
     Eigenvalues ---    0.00136   0.00140   0.00204   0.00234   0.00294
     Eigenvalues ---    0.00394   0.00406   0.00450   0.00499   0.00590
     Eigenvalues ---    0.00609   0.00612   0.00693   0.00710   0.00848
     Eigenvalues ---    0.00965   0.01123   0.01161   0.01474   0.01655
     Eigenvalues ---    0.01678   0.01889   0.01928   0.02043   0.02158
     Eigenvalues ---    0.02294   0.02304   0.02444   0.02533   0.02875
     Eigenvalues ---    0.02971   0.03074   0.03112   0.03219   0.03449
     Eigenvalues ---    0.03542   0.03716   0.03898   0.04198   0.04319
     Eigenvalues ---    0.04368   0.04802   0.04843   0.04869   0.04925
     Eigenvalues ---    0.05026   0.05069   0.05112   0.05116   0.05160
     Eigenvalues ---    0.05185   0.05262   0.05371   0.05468   0.05596
     Eigenvalues ---    0.05645   0.05668   0.05709   0.05743   0.05791
     Eigenvalues ---    0.06015   0.06149   0.06290   0.06518   0.06567
     Eigenvalues ---    0.06833   0.06850   0.06971   0.07027   0.07092
     Eigenvalues ---    0.07148   0.07246   0.07268   0.07329   0.07383
     Eigenvalues ---    0.07644   0.07808   0.07862   0.07953   0.08085
     Eigenvalues ---    0.08466   0.08546   0.08823   0.09026   0.09714
     Eigenvalues ---    0.09765   0.10161   0.10463   0.11257   0.11522
     Eigenvalues ---    0.11840   0.12129   0.12609   0.12851   0.12898
     Eigenvalues ---    0.12952   0.13028   0.13360   0.13687   0.13934
     Eigenvalues ---    0.14130   0.14417   0.14653   0.15668   0.15770
     Eigenvalues ---    0.16028   0.16110   0.16868   0.16956   0.16967
     Eigenvalues ---    0.17256   0.17302   0.17772   0.17880   0.19573
     Eigenvalues ---    0.19692   0.20337   0.20626   0.21590   0.21690
     Eigenvalues ---    0.23070   0.23364   0.23838   0.24806   0.26383
     Eigenvalues ---    0.27463   0.28612   0.29522   0.30045   0.30653
     Eigenvalues ---    0.31428   0.32272   0.34027   0.34755   0.36306
     Eigenvalues ---    0.36699   0.39420   0.40002   0.41215   0.43091
     Eigenvalues ---    0.43538   0.44549   0.48121   0.49030   0.50144
     Eigenvalues ---    0.52973   0.56796   0.57602   0.60169   0.64821
     Eigenvalues ---    0.65381   0.66350   0.67398   0.68225   0.68766
     Eigenvalues ---    0.70489   0.77693   0.78157   0.78471   0.81228
     Eigenvalues ---    0.83005   0.83340   0.85568   0.86429   0.87293
     Eigenvalues ---    0.87986   0.88681   0.90600   0.91307   0.93947
     Eigenvalues ---    0.94414   0.94782   0.94923   0.95663   0.96351
     Eigenvalues ---    0.97900   0.97971   0.99564   1.00395   1.00599
     Eigenvalues ---    1.00790   1.03919   1.04288   1.04585   1.06132
     Eigenvalues ---    1.06345   1.06782   1.07218   1.08764   1.09128
     Eigenvalues ---    1.13116   1.15717   1.15750   1.17002   1.19822
     Eigenvalues ---    1.21192   1.24121   1.26148   1.27725   1.37130
     Eigenvalues ---    1.47237   1.53546   1.57467   1.58245   1.58862
     Eigenvalues ---    1.59578   1.67001   1.72955   1.84197   2.34311
 Eigenvalue     1 is   2.22D-16 Eigenvector:
                          Y46       Y47       Y41       Y42       Y45
   1                    0.13540   0.13540   0.13540   0.13540   0.13540
                          Y40       Y43       Y48       Y39       Y38
   1                    0.13540   0.13540   0.13540   0.13540   0.13540
 Eigenvalue     2 is   5.46D-08 Eigenvector:
                          Y46       X45       X52       X46       Y47
   1                    0.16095  -0.15606  -0.13975  -0.13856   0.13839
                          X40       Y41       Y73       X44       X54
   1                   -0.13787   0.13575  -0.13307  -0.13289  -0.12838
 Eigenvalue     3 is   6.81D-08 Eigenvector:
                          Y46       Z47       X54       Z46       Z42
   1                    0.19828  -0.18857  -0.17923  -0.17554  -0.16204
                          X53       Y47       Y41       Z41       Z69
   1                   -0.16161   0.16148   0.15700  -0.15490   0.14598
 Eigenvalue     4 is   1.61D-07 Eigenvector:
                          Z77       Z76       Z57       Z71       Z75
   1                    0.18732   0.18108  -0.17225  -0.16957   0.16100
                          Z53       Z54       Y64       Z33       Z66
   1                   -0.16000  -0.15854  -0.15573   0.15023  -0.14615
 Eigenvalue     5 is   2.52D-07 Eigenvector:
                          Z47       Y46       Y64       Y9        Y47
   1                    0.18236   0.17603   0.16037  -0.15795   0.14939
                          Z42       Z48       Y71       Y7        Z46
   1                    0.14585   0.14298  -0.14067  -0.14035   0.13883
 Eigenvalue     6 is   4.71D-07 Eigenvector:
                          Y69       Z54       Y48       Y59       Y71
   1                    0.25354  -0.24546  -0.23254  -0.23048   0.20009
                          Y66       Y45       Z53       Z70       Y68
   1                    0.18832   0.18580  -0.18295   0.18040   0.17293
 Eigenvalue     7 is   5.85D-05 Eigenvector:
                          X69       X45       X46       X70       Z70
   1                    0.26979  -0.23685  -0.22453   0.22402   0.21453
                          Z69       X68       X67       X40       X41
   1                    0.21233   0.20713   0.20007  -0.18232  -0.17566
 Quadratic step=3.764D+00 exceeds max=3.000D-01 adjusted using Lamda=-1.382D-03.
 Angle between NR and scaled steps=  21.53 degrees.
 Angle between quadratic step and forces=  61.04 degrees.
 Linear search not attempted -- first point.
 B after Tr=    -0.000623    0.000643    0.000922
         Rot=    1.000000   -0.000152    0.000071   -0.000121 Ang=  -0.02 deg.
 Variable       Old X    -DE/DX   Delta X   Delta X   Delta X     New X
                                 (Linear)    (Quad)   (Total)
    X1       -9.26177   0.00001   0.00000   0.00808   0.00746  -9.25432
    Y1        0.46999  -0.00002   0.00000  -0.00102  -0.00236   0.46763
    Z1       -0.81031  -0.00001   0.00000  -0.00807  -0.00832  -0.81863
    X2       -9.62175   0.00002   0.00000   0.00871   0.00889  -9.61286
    Y2       -1.93682   0.00001   0.00000   0.00159   0.00064  -1.93618
    Z2       -2.37728   0.00002   0.00000  -0.01233  -0.01336  -2.39063
    X3       -7.10890   0.00002   0.00000   0.00950   0.01005  -7.09885
    Y3       -2.80054   0.00001   0.00000   0.00086   0.00087  -2.79967
    Z3       -3.53471   0.00000   0.00000  -0.01045  -0.01138  -3.54610
    X4       -5.21965   0.00003   0.00000   0.00643   0.00680  -5.21285
    Y4       -3.24914   0.00001   0.00000  -0.00296  -0.00315  -3.25228
    Z4       -1.40724  -0.00002   0.00000  -0.00854  -0.00935  -1.41659
    X5       -4.77689   0.00003   0.00000   0.00615   0.00570  -4.77119
    Y5       -0.79797  -0.00001   0.00000  -0.00460  -0.00515  -0.80312
    Z5        0.13555  -0.00003   0.00000  -0.00656  -0.00656   0.12899
    X6       -7.28204  -0.00000   0.00000   0.00590   0.00507  -7.27697
    Y6        0.10873  -0.00000   0.00000  -0.00529  -0.00680   0.10194
    Z6        1.27120   0.00001   0.00000  -0.00686  -0.00694   1.26426
    X7       -7.34684   0.00002   0.00000   0.00951   0.01065  -7.33619
    Y7       -4.52402   0.00001   0.00000   0.00246   0.00276  -4.52127
    Z7       -4.65568  -0.00003   0.00000  -0.01289  -0.01439  -4.67007
    X8      -10.37169   0.00001   0.00000   0.00577   0.00615 -10.36553
    Y8       -3.44898   0.00000   0.00000   0.00034  -0.00116  -3.45014
    Z8       -1.17070  -0.00003   0.00000  -0.01575  -0.01735  -1.18806
    X9      -11.00673   0.00002   0.00000   0.01098   0.01130 -10.99543
    Y9       -1.62059   0.00002   0.00000   0.00507   0.00424  -1.61635
    Z9       -3.88051  -0.00002   0.00000  -0.01368  -0.01481  -3.89532
   X10       -8.65209   0.00002   0.00000   0.00972   0.00890  -8.64319
   Y10        2.00727   0.00004   0.00000   0.00110   0.00029   2.00755
   Z10       -2.06322  -0.00002   0.00000  -0.00485  -0.00454  -2.06776
   X11      -11.06334   0.00001   0.00000   0.00753   0.00665 -11.05670
   Y11        1.04691  -0.00001   0.00000  -0.00194  -0.00398   1.04293
   Z11        0.02767  -0.00000   0.00000  -0.00860  -0.00893   0.01874
   X12       -5.95715   0.00001   0.00000   0.00388   0.00441  -5.95274
   Y12       -4.70285  -0.00005   0.00000  -0.00321  -0.00397  -4.70681
   Z12       -0.13479   0.00004   0.00000  -0.01001  -0.01137  -0.14616
   X13       -4.14682   0.00001   0.00000   0.00758   0.00697  -4.13984
   Y13        0.65233  -0.00001   0.00000  -0.00344  -0.00343   0.64890
   Z13       -1.20653   0.00000   0.00000  -0.00460  -0.00407  -1.21060
   X14       -7.95741   0.00001   0.00000   0.00421   0.00352  -7.95389
   Y14       -1.27078  -0.00003   0.00000  -0.00743  -0.00951  -1.28030
   Z14        2.65815  -0.00001   0.00000  -0.00974  -0.01033   2.64781
   X15       -6.93327   0.00002   0.00000   0.00621   0.00481  -6.92846
   Y15        1.89649  -0.00002   0.00000  -0.00719  -0.00891   1.88759
   Z15        2.25418   0.00000   0.00000  -0.00352  -0.00300   2.25117
   X16       -6.42702   0.00001   0.00000   0.01207   0.01244  -6.41457
   Y16       -1.30567   0.00001   0.00000   0.00191   0.00247  -1.30320
   Z16       -4.80310  -0.00003   0.00000  -0.00790  -0.00828  -4.81138
   X17       -2.71680   0.00001   0.00000   0.00745   0.00815  -2.70865
   Y17       -4.16286   0.00003   0.00000  -0.00381  -0.00314  -4.16600
   Z17       -2.24447  -0.00002   0.00000  -0.00443  -0.00516  -2.24963
   X18       -1.38912   0.00001   0.00000   0.00969   0.01032  -1.37880
   Y18       -2.83406  -0.00002   0.00000  -0.00652  -0.00499  -2.83905
   Z18       -3.99851  -0.00001   0.00000  -0.00478  -0.00492  -4.00343
   X19       -1.43101   0.00000   0.00000   0.00565   0.00649  -1.42452
   Y19       -5.70814   0.00001   0.00000   0.00030   0.00079  -5.70735
   Z19       -0.64377   0.00001   0.00000   0.00101  -0.00001  -0.64378
   X20        1.17520   0.00001   0.00000   0.01010   0.01078   1.18598
   Y20       -2.93730  -0.00001   0.00000  -0.00474  -0.00255  -2.93984
   Z20       -4.14683  -0.00001   0.00000   0.00050   0.00070  -4.14614
   X21       -2.48724   0.00002   0.00000   0.01115   0.01166  -2.47557
   Y21       -1.62535  -0.00000   0.00000  -0.00979  -0.00815  -1.63350
   Z21       -5.23229  -0.00001   0.00000  -0.00930  -0.00923  -5.24152
   X22        1.13350   0.00002   0.00000   0.00590   0.00679   1.14029
   Y22       -5.88568  -0.00001   0.00000   0.00353   0.00464  -5.88104
   Z22       -0.65432   0.00003   0.00000   0.00748   0.00677  -0.64755
   X23       -2.57037   0.00000   0.00000   0.00355   0.00443  -2.56593
   Y23       -6.69146  -0.00000   0.00000   0.00176   0.00156  -6.68991
   Z23        0.74782  -0.00003   0.00000   0.00028  -0.00120   0.74662
   X24        2.56680   0.00001   0.00000   0.00759   0.00833   2.57513
   Y24       -4.30880  -0.00002   0.00000   0.00179   0.00375  -4.30505
   Z24       -2.28731   0.00001   0.00000   0.00728   0.00726  -2.28005
   X25        2.12813   0.00002   0.00000   0.01199   0.01260   2.14074
   Y25       -1.82617   0.00000   0.00000  -0.00702  -0.00416  -1.83034
   Z25       -5.57341  -0.00000   0.00000  -0.00004   0.00063  -5.57278
   X26        2.02533   0.00001   0.00000   0.00413   0.00510   2.03043
   Y26       -7.04462   0.00001   0.00000   0.00778   0.00868  -7.03594
   Z26        0.77125   0.00001   0.00000   0.01205   0.01112   0.78237
   X27        5.06195   0.00002   0.00000   0.00682   0.00748   5.06944
   Y27       -4.12535   0.00004   0.00000   0.00630   0.00881  -4.11654
   Z27       -2.09200   0.00000   0.00000   0.01322   0.01360  -2.07840
   X28        6.40576   0.00000   0.00000   0.00203   0.00260   6.40835
   Y28       -5.05783   0.00003   0.00000   0.01759   0.01973  -5.03810
   Z28        0.15524   0.00004   0.00000   0.02081   0.02110   0.17635
   X29        6.17326   0.00001   0.00000   0.00320   0.00424   6.17750
   Y29       -7.10182   0.00003   0.00000   0.01832   0.02034  -7.08147
   Z29        0.34933   0.00005   0.00000   0.02981   0.02945   0.37878
   X30        5.63618   0.00000   0.00000  -0.00283  -0.00274   5.63345
   Y30       -4.07686   0.00004   0.00000   0.02471   0.02616  -4.05070
   Z30        1.81843   0.00003   0.00000   0.01438   0.01487   1.83329
   X31        6.46396   0.00000   0.00000   0.00727   0.00761   6.47157
   Y31       -2.06560  -0.00000   0.00000   0.00310   0.00632  -2.05928
   Z31       -3.31985  -0.00001   0.00000   0.00844   0.00965  -3.31020
   X32        6.95931   0.00002   0.00000   0.01053   0.01128   6.97060
   Y32       -2.60344  -0.00001   0.00000  -0.00358   0.00035  -2.60309
   Z32       -5.25952   0.00002   0.00000   0.01113   0.01225  -5.24728
   X33        5.27925   0.00000   0.00000   0.00631   0.00625   5.28550
   Y33       -0.37298   0.00004   0.00000   0.00251   0.00545  -0.36753
   Z33       -3.32856   0.00003   0.00000   0.00083   0.00239  -3.32618
   X34       -2.68800  -0.00004   0.00000   0.00442   0.00378  -2.68422
   Y34       -1.03134  -0.00002   0.00000  -0.00717  -0.00775  -1.03909
   Z34        1.90741  -0.00001   0.00000  -0.00534  -0.00512   1.90230
   X35       -2.82763   0.00002   0.00000   0.00140   0.00080  -2.82684
   Y35       -2.69314  -0.00003   0.00000  -0.01027  -0.01168  -2.70482
   Z35        4.50002  -0.00002   0.00000  -0.00765  -0.00795   4.49207
   X36       -5.11560   0.00002   0.00000   0.00374   0.00353  -5.11208
   Y36       -4.25311  -0.00004   0.00000  -0.01326  -0.01519  -4.26831
   Z36        4.40599  -0.00007   0.00000  -0.01485  -0.01595   4.39004
   X37       -0.40436   0.00000   0.00000   0.00239   0.00205  -0.40232
   Y37       -3.98296  -0.00001   0.00000  -0.00746  -0.00839  -3.99135
   Z37        4.85862  -0.00002   0.00000  -0.00427  -0.00462   4.85400
   X38       -1.33190  -0.00001   0.00000  -0.00756  -0.00938  -1.34128
   Y38        4.64022   0.00002   0.00000   0.01692   0.01710   4.65732
   Z38        0.45705   0.00002   0.00000   0.01486   0.01701   0.47406
   X39       -0.39412  -0.00004   0.00000  -0.01238  -0.01366  -0.40778
   Y39        3.75343   0.00006   0.00000   0.02258   0.02369   3.77712
   Z39       -1.86091   0.00003   0.00000   0.01072   0.01273  -1.84818
   X40       -1.82330  -0.00004   0.00000  -0.01920  -0.02022  -1.84352
   Y40        3.97727   0.00004   0.00000   0.02292   0.02435   4.00162
   Z40       -4.06176   0.00003   0.00000   0.01520   0.01708  -4.04468
   X41       -4.22027  -0.00003   0.00000  -0.02189  -0.02318  -4.24345
   Y41        5.07356   0.00002   0.00000   0.01651   0.01734   5.09090
   Z41       -4.01300   0.00005   0.00000   0.02401   0.02588  -3.98712
   X42       -5.17626  -0.00003   0.00000  -0.01769  -0.01952  -5.19578
   Y42        5.95226   0.00000   0.00000   0.00969   0.00959   5.96185
   Z42       -1.72492   0.00005   0.00000   0.02835   0.03035  -1.69457
   X43       -3.73542  -0.00002   0.00000  -0.01056  -0.01265  -3.74807
   Y43        5.73708   0.00002   0.00000   0.01027   0.00985   5.74693
   Z43        0.47251   0.00004   0.00000   0.02370   0.02584   0.49835
   X44        1.41319  -0.00001   0.00000  -0.01008  -0.01111   1.40208
   Y44        2.78755   0.00001   0.00000   0.02693   0.02849   2.81604
   Z44       -1.88100  -0.00001   0.00000   0.00362   0.00560  -1.87540
   X45       -1.04470  -0.00003   0.00000  -0.02237  -0.02297  -1.06767
   Y45        3.30005   0.00006   0.00000   0.02854   0.03070   3.33075
   Z45       -5.84046   0.00002   0.00000   0.01168   0.01347  -5.82700
   X46       -5.32196  -0.00004   0.00000  -0.02721  -0.02829  -5.35026
   Y46        5.25308   0.00004   0.00000   0.01693   0.01802   5.27110
   Z46       -5.73636   0.00005   0.00000   0.02747   0.02924  -5.70712
   X47       -7.03794  -0.00002   0.00000  -0.01984  -0.02188  -7.05983
   Y47        6.81511   0.00000   0.00000   0.00433   0.00375   6.81886
   Z47       -1.64659   0.00005   0.00000   0.03524   0.03724  -1.60935
   X48       -4.49755  -0.00002   0.00000  -0.00747  -0.00998  -4.50753
   Y48        6.44914  -0.00001   0.00000   0.00521   0.00407   6.45322
   Z48        2.24507   0.00003   0.00000   0.02702   0.02926   2.27434
   X49        1.05156   0.00012   0.00000  -0.00197  -0.00374   1.04782
   Y49        2.39406  -0.00002   0.00000   0.01915   0.01884   2.41289
   Z49        3.96491  -0.00010   0.00000   0.01257   0.01438   3.97929
   X50       -0.83002  -0.00001   0.00000   0.00494   0.00426  -0.82576
   Y50       -0.55906  -0.00006   0.00000  -0.00680  -0.00677  -0.56583
   Z50        1.35792  -0.00004   0.00000  -0.00311  -0.00248   1.35544
   X51        3.25059  -0.00024   0.00000  -0.01567  -0.01695   3.23365
   Y51        1.05237   0.00005   0.00000   0.00525   0.00582   1.05819
   Z51        2.78434   0.00007   0.00000   0.00411   0.00581   2.79015
   X52        2.55374  -0.00003   0.00000  -0.03431  -0.03502   2.51872
   Y52       -0.04078   0.00005   0.00000   0.00154   0.00259  -0.03819
   Z52        0.66246   0.00007   0.00000   0.01227   0.01353   0.67600
   X53        3.91829   0.00009   0.00000  -0.01120  -0.01233   3.90596
   Y53       -0.66584   0.00003   0.00000   0.00837   0.00852  -0.65733
   Z53        4.72333  -0.00000   0.00000   0.00538   0.00666   4.72999
   X54        2.60750  -0.00005   0.00000  -0.01804  -0.01886   2.58864
   Y54       -1.95821   0.00001   0.00000   0.01488   0.01471  -1.94349
   Z54        4.68799   0.00004   0.00000   0.01881   0.01950   4.70750
   X55        5.51329   0.00004   0.00000  -0.00526  -0.00696   5.50634
   Y55        2.91071   0.00013   0.00000  -0.00854  -0.00737   2.90333
   Z55        2.67814   0.00011   0.00000  -0.01683  -0.01425   2.66389
   X56        5.36467  -0.00002   0.00000   0.01654   0.01429   5.37896
   Y56        4.22012  -0.00012   0.00000  -0.00457  -0.00392   4.21620
   Z56        4.28085  -0.00016   0.00000  -0.01870  -0.01573   4.26512
   X57        7.20568  -0.00005   0.00000  -0.01065  -0.01213   7.19355
   Y57        1.77254  -0.00000   0.00000  -0.01991  -0.01845   1.75409
   Z57        3.05174  -0.00002   0.00000  -0.02764  -0.02516   3.02657
   X58        0.19419  -0.00000   0.00000   0.00069  -0.00148   0.19271
   Y58        4.66819   0.00001   0.00000   0.01876   0.01856   4.68675
   Z58        2.91777   0.00005   0.00000   0.00982   0.01219   2.92997
   X59       -1.03814  -0.00000   0.00000   0.00808   0.00550  -1.03264
   Y59        5.50343   0.00004   0.00000   0.02591   0.02497   5.52840
   Z59        4.36309   0.00002   0.00000   0.01201   0.01447   4.37757
   X60        1.77338  -0.00000   0.00000   0.00367   0.00121   1.77459
   Y60        5.99999  -0.00002   0.00000   0.01347   0.01373   6.01372
   Z60        2.67992   0.00001   0.00000   0.00079   0.00379   2.68371
   X61       -3.11935  -0.00004   0.00000  -0.00770  -0.00920  -3.12855
   Y61       -0.45610  -0.00002   0.00000  -0.01275  -0.01499  -0.47109
   Z61        6.98866   0.00003   0.00000  -0.00627  -0.00594   6.98272
   X62       -1.46030   0.00000   0.00000  -0.01018  -0.01195  -1.47226
   Y62        0.76863   0.00003   0.00000  -0.00875  -0.01055   0.75808
   Z62        6.85377  -0.00002   0.00000  -0.00241  -0.00146   6.85231
   X63       -4.86691  -0.00003   0.00000  -0.00956  -0.01127  -4.87819
   Y63        0.60071  -0.00003   0.00000  -0.01647  -0.01905   0.58166
   Z63        6.70053  -0.00002   0.00000  -0.00889  -0.00848   6.69205
   X64       -3.17293  -0.00003   0.00000  -0.00903  -0.01053  -3.18345
   Y64       -1.49982  -0.00002   0.00000  -0.01412  -0.01691  -1.51673
   Z64        8.76640  -0.00001   0.00000  -0.00713  -0.00712   8.75928
   X65        5.90721   0.00008   0.00000  -0.01338  -0.01508   5.89212
   Y65        4.37237   0.00006   0.00000  -0.01754  -0.01553   4.35684
   Z65        0.22350   0.00023   0.00000  -0.02345  -0.02037   0.20313
   X66        6.12069  -0.00014   0.00000  -0.06459  -0.06575   6.05495
   Y66        3.03420  -0.00032   0.00000  -0.02364  -0.02112   3.01308
   Z66       -1.34169  -0.00035   0.00000  -0.02681  -0.02412  -1.36580
   X67        4.24843  -0.00015   0.00000   0.00176  -0.00017   4.24826
   Y67        5.51428   0.00015   0.00000   0.01578   0.01753   5.53180
   Z67       -0.25094   0.00001   0.00000   0.00145   0.00466  -0.24628
   X68        8.22360  -0.00006   0.00000   0.02493   0.02280   8.24640
   Y68        6.08866  -0.00019   0.00000  -0.06538  -0.06284   6.02582
   Z68        0.37538  -0.00033   0.00000  -0.05977  -0.05584   0.31953
   X69        8.54203   0.00003   0.00000   0.01724   0.01512   8.55715
   Y69        7.11259  -0.00012   0.00000  -0.07091  -0.06775   7.04484
   Z69       -1.39297  -0.00010   0.00000  -0.06435  -0.06007  -1.45305
   X70        7.99772   0.00017   0.00000   0.08098   0.07830   8.07602
   Y70        7.48617   0.00018   0.00000  -0.06108  -0.05904   7.42713
   Z70        1.88466   0.00020   0.00000  -0.05384  -0.04951   1.83515
   X71        9.92987   0.00016   0.00000   0.00917   0.00726   9.93713
   Y71        4.99447  -0.00028   0.00000  -0.10262  -0.09979   4.89468
   Z71        0.79890  -0.00010   0.00000  -0.08968  -0.08586   0.71304
   X72        9.13091   0.00000   0.00000   0.00275   0.00320   9.13411
   Y72       -4.28095   0.00004   0.00000   0.01731   0.02026  -4.26068
   Z72       -0.36207   0.00002   0.00000   0.02428   0.02519  -0.33688
   X73       10.24509  -0.00001   0.00000  -0.00213  -0.00195  10.24315
   Y73       -4.17970   0.00005   0.00000   0.02709   0.02979  -4.14991
   Z73        1.37062   0.00005   0.00000   0.02685   0.02796   1.39858
   X74       10.02857   0.00001   0.00000   0.00733   0.00829  10.03686
   Y74       -5.63301   0.00003   0.00000   0.01136   0.01492  -5.61809
   Z74       -1.64780   0.00007   0.00000   0.03382   0.03445  -1.61335
   X75        8.79618  -0.00001   0.00000   0.00488   0.00490   8.80108
   Y75       -1.71011  -0.00002   0.00000   0.01057   0.01384  -1.69627
   Z75       -1.64327   0.00003   0.00000   0.01023   0.01188  -1.63139
   X76        8.36106   0.00004   0.00000   0.00363   0.00310   8.36416
   Y76       -0.29068   0.00004   0.00000   0.01839   0.02112  -0.26956
   Z76       -0.20704  -0.00002   0.00000   0.00207   0.00410  -0.20294
   X77       10.44850   0.00001   0.00000   0.00662   0.00664  10.45515
   Y77       -1.09343   0.00000   0.00000   0.00449   0.00849  -1.08495
   Z77       -2.71469   0.00001   0.00000   0.00942   0.01149  -2.70320
         Item               Value     Threshold  Converged?
 Maximum Force            0.000349     0.000450     YES
 RMS     Force            0.000067     0.000300     YES
 Maximum Displacement     0.099787     0.001800     NO 
 RMS     Displacement     0.019674     0.001200     NO 
 Predicted change in Energy=-1.388983D-04
 GradGradGradGradGradGradGradGradGradGradGradGradGradGradGradGradGradGrad

 Leave Link  103 at Thu Feb  7 14:15:07 2019, MaxMem=   104857600 cpu:              18.1 elap:               0.8
 (Enter /home/xinyan/g16/l9999.exe)
 1\1\GINC-TSE4\Force\RM062X\6-31G(d)\C27H41N3O5S1\STEVETSE\07-Feb-2019\
 0\\#p M062X/6-31G* em=gd3 force int=ultrafine\\Title\\0,1\C,-4.90112,0
 .24871,-0.4288\C,-5.09161,-1.02492,-1.258\C,-3.76187,-1.48198,-1.87049
 \C,-2.76212,-1.71937,-0.74468\C,-2.52782,-0.42227,0.07173\C,-3.85349,0
 .05754,0.67269\H,-3.88778,-2.39401,-2.46368\H,-5.48846,-1.82512,-0.619
 51\H,-5.82451,-0.85758,-2.05348\H,-4.57849,1.0622,-1.09181\H,-5.85447,
 0.554,0.01464\H,-3.15239,-2.48864,-0.07133\H,-2.1944,0.3452,-0.63847\H
 ,-4.21088,-0.67247,1.40663\H,-3.66893,1.00358,1.19286\H,-3.40103,-0.69
 093,-2.54169\N,-1.43767,-2.20289,-1.18772\C,-0.73509,-1.49972,-2.11592
 \C,-0.75726,-3.02062,-0.34067\C,0.62189,-1.55435,-2.19441\H,-1.31619,-
 0.8601,-2.76881\C,0.59982,-3.11457,-0.34625\H,-1.36018,-3.54097,0.3957
 3\C,1.35829,-2.28012,-1.21039\H,1.12616,-0.96637,-2.94932\H,1.07176,-3
 .72785,0.40813\N,2.67867,-2.18304,-1.10704\C,3.38978,-2.67649,0.08215\
 H,3.26675,-3.75812,0.18486\H,2.98254,-2.15738,0.96227\C,3.42058,-1.093
 07,-1.75679\H,3.68271,-1.37768,-2.78322\H,2.79366,-0.19737,-1.7614\N,-
 1.42243,-0.54576,1.00936\S,-1.49632,-1.42515,2.38131\O,-2.70706,-2.250
 65,2.33155\O,-0.21398,-2.10769,2.57107\C,-0.70481,2.4555,0.24186\C,-0.
 20856,1.98623,-0.98475\C,-0.96485,2.10468,-2.14939\C,-2.23327,2.68481,
 -2.12359\C,-2.73916,3.1498,-0.91279\C,-1.9767,3.03593,0.25004\H,0.7478
 3,1.47511,-0.99538\H,-0.55283,1.74631,-3.09064\H,-2.81626,2.77981,-3.0
 3555\H,-3.72432,3.6064,-0.87134\H,-2.38,3.41274,1.18804\O,0.55646,1.26
 688,2.09814\H,-0.43923,-0.29584,0.71858\C,1.72014,0.55689,1.47341\O,1.
 35138,-0.02158,0.35056\O,2.07347,-0.35235,2.49948\H,1.37983,-1.03624,2
 .48078\C,2.91751,1.54028,1.41721\H,2.83886,2.23319,2.26533\H,3.81308,0
 .93799,1.61491\C,0.10276,2.4703,1.54402\H,-0.54936,2.91229,2.30885\H,0
 .93843,3.17506,1.41815\C,-1.65069,-0.24136,3.69824\H,-0.77276,0.40674,
 3.62686\H,-2.57546,0.31788,3.54577\H,-1.67904,-0.79367,4.63898\C,3.125
 96,2.31376,0.11827\H,3.23893,1.60563,-0.70999\H,2.24817,2.91803,-0.132
 79\C,4.35174,3.22198,0.19864\H,4.52025,3.76382,-0.73713\H,4.23221,3.96
 151,0.99732\H,5.25466,2.64296,0.42276\C,4.83187,-2.26538,-0.1916\H,5.4
 2147,-2.2118,0.7253\H,5.30689,-2.98086,-0.87198\C,4.65474,-0.90495,-0.
 86958\H,4.42448,-0.15382,-0.10956\H,5.52911,-0.57862,-1.43655\\Version
 =ES64L-G16RevA.03\State=1-A\HF=-1991.3582571\RMSD=9.199e-09\RMSF=6.686
 e-05\Dipole=-0.9899168,-0.7060443,-2.5274883\Quadrupole=7.7434213,-5.1
 296463,-2.613775,-9.3416047,-3.9126772,7.243363\PG=C01 [X(C27H41N3O5S1
 )]\\@


 "TIGER, TIGER BURNING BRIGHT
 IN THE FOREST OF THE NIGHT.
 WHAT IMMORTAL HAND OR EYE
 CAN FRAME THY FEARFUL SYMMETRYE?"
                     - WILLIAM BLAKE
 Job cpu time:       0 days  1 hours 18 minutes 32.3 seconds.
 Elapsed time:       0 days  0 hours  3 minutes 19.1 seconds.
 File lengths (MBytes):  RWF=    216 Int=      0 D2E=      0 Chk=     25 Scr=      1
 Normal termination of Gaussian 16 at Thu Feb  7 14:15:07 2019.
