 Entering Gaussian System, Link 0=g16
 Input=C27N3H41SO5-185.gjf
 Output=C27N3H41SO5-185.log
 Initial command:
 /home/xinyan/g16/l1.exe "/local/home/tmp/Gau-9278.inp" -scrdir="/local/home/tmp/"
 Entering Link 1 = /home/xinyan/g16/l1.exe PID=      9279.
  
 Copyright (c) 1988,1990,1992,1993,1995,1998,2003,2009,2016,
            Gaussian, Inc.  All Rights Reserved.
  
 This is part of the Gaussian(R) 16 program.  It is based on
 the Gaussian(R) 09 system (copyright 2009, Gaussian, Inc.),
 the Gaussian(R) 03 system (copyright 2003, Gaussian, Inc.),
 the Gaussian(R) 98 system (copyright 1998, Gaussian, Inc.),
 the Gaussian(R) 94 system (copyright 1995, Gaussian, Inc.),
 the Gaussian 92(TM) system (copyright 1992, Gaussian, Inc.),
 the Gaussian 90(TM) system (copyright 1990, Gaussian, Inc.),
 the Gaussian 88(TM) system (copyright 1988, Gaussian, Inc.),
 the Gaussian 86(TM) system (copyright 1986, Carnegie Mellon
 University), and the Gaussian 82(TM) system (copyright 1983,
 Carnegie Mellon University). Gaussian is a federally registered
 trademark of Gaussian, Inc.
  
 This software contains proprietary and confidential information,
 including trade secrets, belonging to Gaussian, Inc.
  
 This software is provided under written license and may be
 used, copied, transmitted, or stored only in accord with that
 written license.
  
 The following legend is applicable only to US Government
 contracts under FAR:
  
                    RESTRICTED RIGHTS LEGEND
  
 Use, reproduction and disclosure by the US Government is
 subject to restrictions as set forth in subparagraphs (a)
 and (c) of the Commercial Computer Software - Restricted
 Rights clause in FAR 52.227-19.
  
 Gaussian, Inc.
 340 Quinnipiac St., Bldg. 40, Wallingford CT 06492
  
  
 ---------------------------------------------------------------
 Warning -- This program may not be used in any manner that
 competes with the business of Gaussian, Inc. or will provide
 assistance to any competitor of Gaussian, Inc.  The licensee
 of this program is prohibited from giving any competitor of
 Gaussian, Inc. access to this program.  By using this program,
 the user acknowledges that Gaussian, Inc. is engaged in the
 business of creating and licensing software in the field of
 computational chemistry and represents and warrants to the
 licensee that it is not a competitor of Gaussian, Inc. and that
 it will not use this program in any manner prohibited above.
 ---------------------------------------------------------------
  

 Cite this work as:
 Gaussian 16, Revision A.03,
 M. J. Frisch, G. W. Trucks, H. B. Schlegel, G. E. Scuseria, 
 M. A. Robb, J. R. Cheeseman, G. Scalmani, V. Barone, 
 G. A. Petersson, H. Nakatsuji, X. Li, M. Caricato, A. V. Marenich, 
 J. Bloino, B. G. Janesko, R. Gomperts, B. Mennucci, H. P. Hratchian, 
 J. V. Ortiz, A. F. Izmaylov, J. L. Sonnenberg, D. Williams-Young, 
 F. Ding, F. Lipparini, F. Egidi, J. Goings, B. Peng, A. Petrone, 
 T. Henderson, D. Ranasinghe, V. G. Zakrzewski, J. Gao, N. Rega, 
 G. Zheng, W. Liang, M. Hada, M. Ehara, K. Toyota, R. Fukuda, 
 J. Hasegawa, M. Ishida, T. Nakajima, Y. Honda, O. Kitao, H. Nakai, 
 T. Vreven, K. Throssell, J. A. Montgomery, Jr., J. E. Peralta, 
 F. Ogliaro, M. J. Bearpark, J. J. Heyd, E. N. Brothers, K. N. Kudin, 
 V. N. Staroverov, T. A. Keith, R. Kobayashi, J. Normand, 
 K. Raghavachari, A. P. Rendell, J. C. Burant, S. S. Iyengar, 
 J. Tomasi, M. Cossi, J. M. Millam, M. Klene, C. Adamo, R. Cammi, 
 J. W. Ochterski, R. L. Martin, K. Morokuma, O. Farkas, 
 J. B. Foresman, and D. J. Fox, Gaussian, Inc., Wallingford CT, 2016.
 
 ******************************************
 Gaussian 16:  ES64L-G16RevA.03 25-Dec-2016
                 7-Feb-2019 
 ******************************************
 %nproc=24
 Will use up to   24 processors via shared memory.
 ------------------------------------------
 #p M062X/6-31G* em=gd3 force int=ultrafine
 ------------------------------------------
 1/10=7,30=1,38=1/1,3;
 2/12=2,17=6,18=5,40=1/2;
 3/5=1,6=6,7=1,11=2,25=1,30=1,71=1,74=-55,75=-5,124=31/1,2,3;
 4//1;
 5/5=2,38=5/2;
 6/7=2,8=2,9=2,10=2,28=1/1;
 7/29=1/1,2,3,16;
 1/10=7,30=1/3;
 99//99;
 Leave Link    1 at Thu Feb  7 18:44:52 2019, MaxMem=           0 cpu:               2.5 elap:               0.1
 (Enter /home/xinyan/g16/l101.exe)
 -----
 Title
 -----
 Symbolic Z-matrix:
 Charge =  0 Multiplicity = 1
 C                    -4.95362   0.26243  -0.35604 
 C                    -5.11686  -1.006    -1.19852 
 C                    -3.77114  -1.44386  -1.78907 
 C                    -2.78381  -1.68804  -0.652 
 C                    -2.587    -0.40396   0.19159 
 C                    -3.92989   0.06264   0.76542 
 H                    -3.87726  -2.34781  -2.39853 
 H                    -5.51956  -1.81453  -0.57435 
 H                    -5.83448  -0.83937  -2.00805 
 H                    -4.61595   1.08269  -1.00432 
 H                    -5.9187    0.56169   0.06544 
 H                    -3.17036  -2.47871  -0.00101 
 H                    -2.23943   0.37331  -0.50181 
 H                    -4.29547  -0.67588   1.4877 
 H                    -3.75867   1.00487   1.29886 
 H                    -3.40739  -0.63815  -2.44089 
 N                    -1.44957  -2.14844  -1.09665 
 C                    -0.77137  -1.47395  -2.06014 
 C                    -0.75169  -2.96355  -0.26458 
 C                     0.58028  -1.56663  -2.20152 
 H                    -1.36305  -0.8292   -2.69698 
 C                     0.60186  -3.09753  -0.33461 
 H                    -1.33328  -3.46533   0.50106 
 C                     1.34476  -2.31551  -1.25935 
 H                     1.06215  -1.00127  -2.98813 
 H                     1.08891  -3.71881   0.40368 
 N                     2.67563  -2.28463  -1.23879 
 C                     3.41753  -2.8133   -0.0839 
 H                     3.28415  -3.89557  -0.00049 
 H                     3.04366  -2.31533   0.82175 
 C                     3.44142  -1.22955  -1.92532 
 H                     3.70054  -1.55652  -2.93976 
 H                     2.84663  -0.31399  -1.96001 
 N                    -1.49305  -0.55057   1.13572 
 S                    -1.53751  -1.45236   2.48732 
 O                    -2.73692  -2.29481   2.43772 
 O                    -0.24245  -2.12363   2.64603 
 C                    -0.73319   2.50057   0.09925 
 C                    -0.19685   1.85963  -1.02605 
 C                    -0.86336   1.91995  -2.24906 
 C                    -2.08716   2.58143  -2.36271 
 C                    -2.63637   3.19861  -1.24059 
 C                    -1.95698   3.16048  -0.0237 
 H                     0.72082   1.28249  -0.91178 
 H                    -0.42476   1.44541  -3.12508 
 H                    -2.6056    2.62149  -3.31647 
 H                    -3.59147   3.7114   -1.31145 
 H                    -2.38739   3.64216   0.85186 
 O                     0.39793   1.15642   1.78284 
 H                    -0.68121   0.14902   1.1841 
 C                     2.04277   0.42891   1.34706 
 O                     1.90115  -0.08471   0.21639 
 O                     2.10049  -0.38838   2.45049 
 H                     1.41616  -1.07559   2.33171 
 C                     2.97826   1.61543   1.55076 
 H                     2.62137   2.23746   2.37841 
 H                     3.93378   1.18439   1.88224 
 C                    -0.01974   2.43103   1.4436 
 H                    -0.71556   2.81899   2.21074 
 H                     0.82483   3.14411   1.43092 
 C                    -1.64194  -0.27585   3.81937 
 H                    -0.78872   0.39614   3.67678 
 H                    -2.5901    0.25797   3.73754 
 H                    -1.57476  -0.8194    4.76292 
 C                     3.2131    2.43745   0.28693 
 H                     3.58275   1.7734   -0.50319 
 H                     2.26639   2.84097  -0.08982 
 C                     4.20138   3.57704   0.52259 
 H                     4.38866   4.14591  -0.39321 
 H                     3.82262   4.27387   1.27837 
 H                     5.1623    3.19293   0.88288 
 C                     4.85731  -2.40798  -0.37846 
 H                     5.46208  -2.36874   0.52945 
 H                     5.31734  -3.11892  -1.07353 
 C                     4.67564  -1.04098  -1.04004 
 H                     4.43087  -0.29923  -0.27454 
 H                     5.5481   -0.70615  -1.60497 
 
 ITRead=  0  0  0  0  0  0  0  0  0  0  0  0  0  0  0  0  0  0  0  0
 ITRead=  0  0  0  0  0  0  0  0  0  0  0  0  0  0  0  0  0  0  0  0
 ITRead=  0  0  0  0  0  0  0  0  0  0  0  0  0  0  0  0  0  0  0  0
 ITRead=  0  0  0  0  0  0  0  0  0  0  0  0  0  0  0  0  0
 MicOpt= -1 -1 -1 -1 -1 -1 -1 -1 -1 -1 -1 -1 -1 -1 -1 -1 -1 -1 -1 -1
 MicOpt= -1 -1 -1 -1 -1 -1 -1 -1 -1 -1 -1 -1 -1 -1 -1 -1 -1 -1 -1 -1
 MicOpt= -1 -1 -1 -1 -1 -1 -1 -1 -1 -1 -1 -1 -1 -1 -1 -1 -1 -1 -1 -1
 MicOpt= -1 -1 -1 -1 -1 -1 -1 -1 -1 -1 -1 -1 -1 -1 -1 -1 -1
 NAtoms=     77 NQM=       77 NQMF=       0 NMMI=      0 NMMIF=      0
                NMic=       0 NMicF=      0.
                    Isotopes and Nuclear Properties:
 (Nuclear quadrupole moments (NQMom) in fm**2, nuclear magnetic moments (NMagM)
  in nuclear magnetons)

  Atom         1           2           3           4           5           6           7           8           9          10
 IAtWgt=          12          12          12          12          12          12           1           1           1           1
 AtmWgt=  12.0000000  12.0000000  12.0000000  12.0000000  12.0000000  12.0000000   1.0078250   1.0078250   1.0078250   1.0078250
 NucSpn=           0           0           0           0           0           0           1           1           1           1
 AtZEff=  -0.0000000  -0.0000000  -0.0000000  -0.0000000  -0.0000000  -0.0000000  -0.0000000  -0.0000000  -0.0000000  -0.0000000
 NQMom=    0.0000000   0.0000000   0.0000000   0.0000000   0.0000000   0.0000000   0.0000000   0.0000000   0.0000000   0.0000000
 NMagM=    0.0000000   0.0000000   0.0000000   0.0000000   0.0000000   0.0000000   2.7928460   2.7928460   2.7928460   2.7928460
 AtZNuc=   6.0000000   6.0000000   6.0000000   6.0000000   6.0000000   6.0000000   1.0000000   1.0000000   1.0000000   1.0000000

  Atom        11          12          13          14          15          16          17          18          19          20
 IAtWgt=           1           1           1           1           1           1          14          12          12          12
 AtmWgt=   1.0078250   1.0078250   1.0078250   1.0078250   1.0078250   1.0078250  14.0030740  12.0000000  12.0000000  12.0000000
 NucSpn=           1           1           1           1           1           1           2           0           0           0
 AtZEff=  -0.0000000  -0.0000000  -0.0000000  -0.0000000  -0.0000000  -0.0000000  -0.0000000  -0.0000000  -0.0000000  -0.0000000
 NQMom=    0.0000000   0.0000000   0.0000000   0.0000000   0.0000000   0.0000000   2.0440000   0.0000000   0.0000000   0.0000000
 NMagM=    2.7928460   2.7928460   2.7928460   2.7928460   2.7928460   2.7928460   0.4037610   0.0000000   0.0000000   0.0000000
 AtZNuc=   1.0000000   1.0000000   1.0000000   1.0000000   1.0000000   1.0000000   7.0000000   6.0000000   6.0000000   6.0000000

  Atom        21          22          23          24          25          26          27          28          29          30
 IAtWgt=           1          12           1          12           1           1          14          12           1           1
 AtmWgt=   1.0078250  12.0000000   1.0078250  12.0000000   1.0078250   1.0078250  14.0030740  12.0000000   1.0078250   1.0078250
 NucSpn=           1           0           1           0           1           1           2           0           1           1
 AtZEff=  -0.0000000  -0.0000000  -0.0000000  -0.0000000  -0.0000000  -0.0000000  -0.0000000  -0.0000000  -0.0000000  -0.0000000
 NQMom=    0.0000000   0.0000000   0.0000000   0.0000000   0.0000000   0.0000000   2.0440000   0.0000000   0.0000000   0.0000000
 NMagM=    2.7928460   0.0000000   2.7928460   0.0000000   2.7928460   2.7928460   0.4037610   0.0000000   2.7928460   2.7928460
 AtZNuc=   1.0000000   6.0000000   1.0000000   6.0000000   1.0000000   1.0000000   7.0000000   6.0000000   1.0000000   1.0000000

  Atom        31          32          33          34          35          36          37          38          39          40
 IAtWgt=          12           1           1          14          32          16          16          12          12          12
 AtmWgt=  12.0000000   1.0078250   1.0078250  14.0030740  31.9720718  15.9949146  15.9949146  12.0000000  12.0000000  12.0000000
 NucSpn=           0           1           1           2           0           0           0           0           0           0
 AtZEff=  -0.0000000  -0.0000000  -0.0000000  -0.0000000  -0.0000000  -0.0000000  -0.0000000  -0.0000000  -0.0000000  -0.0000000
 NQMom=    0.0000000   0.0000000   0.0000000   2.0440000   0.0000000   0.0000000   0.0000000   0.0000000   0.0000000   0.0000000
 NMagM=    0.0000000   2.7928460   2.7928460   0.4037610   0.0000000   0.0000000   0.0000000   0.0000000   0.0000000   0.0000000
 AtZNuc=   6.0000000   1.0000000   1.0000000   7.0000000  16.0000000   8.0000000   8.0000000   6.0000000   6.0000000   6.0000000

  Atom        41          42          43          44          45          46          47          48          49          50
 IAtWgt=          12          12          12           1           1           1           1           1          16           1
 AtmWgt=  12.0000000  12.0000000  12.0000000   1.0078250   1.0078250   1.0078250   1.0078250   1.0078250  15.9949146   1.0078250
 NucSpn=           0           0           0           1           1           1           1           1           0           1
 AtZEff=  -0.0000000  -0.0000000  -0.0000000  -0.0000000  -0.0000000  -0.0000000  -0.0000000  -0.0000000  -0.0000000  -0.0000000
 NQMom=    0.0000000   0.0000000   0.0000000   0.0000000   0.0000000   0.0000000   0.0000000   0.0000000   0.0000000   0.0000000
 NMagM=    0.0000000   0.0000000   0.0000000   2.7928460   2.7928460   2.7928460   2.7928460   2.7928460   0.0000000   2.7928460
 AtZNuc=   6.0000000   6.0000000   6.0000000   1.0000000   1.0000000   1.0000000   1.0000000   1.0000000   8.0000000   1.0000000

  Atom        51          52          53          54          55          56          57          58          59          60
 IAtWgt=          12          16          16           1          12           1           1          12           1           1
 AtmWgt=  12.0000000  15.9949146  15.9949146   1.0078250  12.0000000   1.0078250   1.0078250  12.0000000   1.0078250   1.0078250
 NucSpn=           0           0           0           1           0           1           1           0           1           1
 AtZEff=  -0.0000000  -0.0000000  -0.0000000  -0.0000000  -0.0000000  -0.0000000  -0.0000000  -0.0000000  -0.0000000  -0.0000000
 NQMom=    0.0000000   0.0000000   0.0000000   0.0000000   0.0000000   0.0000000   0.0000000   0.0000000   0.0000000   0.0000000
 NMagM=    0.0000000   0.0000000   0.0000000   2.7928460   0.0000000   2.7928460   2.7928460   0.0000000   2.7928460   2.7928460
 AtZNuc=   6.0000000   8.0000000   8.0000000   1.0000000   6.0000000   1.0000000   1.0000000   6.0000000   1.0000000   1.0000000

  Atom        61          62          63          64          65          66          67          68          69          70
 IAtWgt=          12           1           1           1          12           1           1          12           1           1
 AtmWgt=  12.0000000   1.0078250   1.0078250   1.0078250  12.0000000   1.0078250   1.0078250  12.0000000   1.0078250   1.0078250
 NucSpn=           0           1           1           1           0           1           1           0           1           1
 AtZEff=  -0.0000000  -0.0000000  -0.0000000  -0.0000000  -0.0000000  -0.0000000  -0.0000000  -0.0000000  -0.0000000  -0.0000000
 NQMom=    0.0000000   0.0000000   0.0000000   0.0000000   0.0000000   0.0000000   0.0000000   0.0000000   0.0000000   0.0000000
 NMagM=    0.0000000   2.7928460   2.7928460   2.7928460   0.0000000   2.7928460   2.7928460   0.0000000   2.7928460   2.7928460
 AtZNuc=   6.0000000   1.0000000   1.0000000   1.0000000   6.0000000   1.0000000   1.0000000   6.0000000   1.0000000   1.0000000

  Atom        71          72          73          74          75          76          77
 IAtWgt=           1          12           1           1          12           1           1
 AtmWgt=   1.0078250  12.0000000   1.0078250   1.0078250  12.0000000   1.0078250   1.0078250
 NucSpn=           1           0           1           1           0           1           1
 AtZEff=  -0.0000000  -0.0000000  -0.0000000  -0.0000000  -0.0000000  -0.0000000  -0.0000000
 NQMom=    0.0000000   0.0000000   0.0000000   0.0000000   0.0000000   0.0000000   0.0000000
 NMagM=    2.7928460   0.0000000   2.7928460   2.7928460   0.0000000   2.7928460   2.7928460
 AtZNuc=   1.0000000   6.0000000   1.0000000   1.0000000   6.0000000   1.0000000   1.0000000
 Leave Link  101 at Thu Feb  7 18:44:53 2019, MaxMem=   104857600 cpu:               5.8 elap:               0.3
 (Enter /home/xinyan/g16/l103.exe)

 GradGradGradGradGradGradGradGradGradGradGradGradGradGradGradGradGradGrad
 Berny optimization.
 Initialization pass.
 Trust Radius=3.00D-01 FncErr=1.00D-07 GrdErr=1.00D-07 EigMax=2.50D+02 EigMin=1.00D-04
 Number of steps in this run=      2 maximum allowed number of steps=      2.
 GradGradGradGradGradGradGradGradGradGradGradGradGradGradGradGradGradGrad

 Leave Link  103 at Thu Feb  7 18:44:53 2019, MaxMem=   104857600 cpu:               1.6 elap:               0.1
 (Enter /home/xinyan/g16/l202.exe)
 Stoichiometry    C27H41N3O5S
 Framework group  C1[X(C27H41N3O5S)]
 Deg. of freedom   225
 Full point group                 C1      NOp   1
 Largest Abelian subgroup         C1      NOp   1
 Largest concise Abelian subgroup C1      NOp   1
                         Standard orientation:                         
 ---------------------------------------------------------------------
 Center     Atomic      Atomic             Coordinates (Angstroms)
 Number     Number       Type             X           Y           Z
 ---------------------------------------------------------------------
      1          6           0       -4.842620    0.465738   -0.517754
      2          6           0       -4.997178   -0.805356   -1.357853
      3          6           0       -3.648431   -1.235305   -1.947307
      4          6           0       -2.659722   -1.470700   -0.809583
      5          6           0       -2.471700   -0.183729    0.031603
      6          6           0       -3.817806    0.274947    0.604284
      7          1           0       -3.748362   -2.141102   -2.555068
      8          1           0       -5.394579   -1.615380   -0.732225
      9          1           0       -5.715731   -0.645078   -2.167838
     10          1           0       -4.510322    1.287011   -1.167526
     11          1           0       -5.809772    0.759322   -0.097031
     12          1           0       -3.041098   -2.262706   -0.157166
     13          1           0       -2.129204    0.594535   -0.663205
     14          1           0       -4.178577   -0.464634    1.327895
     15          1           0       -3.653017    1.219315    1.135965
     16          1           0       -3.289955   -0.428414   -2.600587
     17          7           0       -1.322333   -1.922989   -1.253097
     18          6           0       -0.648470   -1.245799   -2.217735
     19          6           0       -0.619177   -2.731820   -0.419343
     20          6           0        0.703800   -1.329683   -2.358675
     21          1           0       -1.244327   -0.606241   -2.855915
     22          6           0        0.735255   -2.856855   -0.488854
     23          1           0       -1.197550   -3.236032    0.347136
     24          6           0        1.473088   -2.071630   -1.414934
     25          1           0        1.182033   -0.762601   -3.146264
     26          1           0        1.226305   -3.473452    0.250710
     27          7           0        2.803716   -2.031790   -1.394174
     28          6           0        3.548904   -2.553279   -0.238136
     29          1           0        3.422765   -3.636259   -0.152695
     30          1           0        3.171516   -2.056107    0.666493
     31          6           0        3.562559   -0.972905   -2.082559
     32          1           0        3.824075   -1.300057   -3.096325
     33          1           0        2.961652   -0.061421   -2.119105
     34          7           0       -1.376987   -0.321208    0.976223
     35         16           0       -1.415682   -1.220707    2.329527
     36          8           0       -2.609407   -2.071272    2.281294
     37          8           0       -0.116184   -1.882977    2.489765
     38          6           0       -0.637383    2.732983   -0.065897
     39          6           0       -0.096525    2.093517   -1.189872
     40          6           0       -0.763170    2.147044   -2.413124
     41          6           0       -1.991354    2.800087   -2.528270
     42          6           0       -2.544922    3.415702   -1.407432
     43          6           0       -1.865544    3.384439   -0.190339
     44          1           0        0.824970    1.522760   -1.074326
     45          1           0       -0.321217    1.673791   -3.288155
     46          1           0       -2.509853    2.834859   -3.482205
     47          1           0       -3.503423    3.921942   -1.479453
     48          1           0       -2.299355    3.864885    0.684220
     49          8           0        0.502373    1.399647    1.620466
     50          1           0       -0.569866    0.383899    1.023432
     51          6           0        2.152143    0.682354    1.186390
     52          8           0        2.014204    0.165649    0.056671
     53          8           0        2.215112   -0.132433    2.291383
     54          1           0        1.535428   -0.824440    2.173776
     55          6           0        3.079616    1.875503    1.388017
     56          1           0        2.718392    2.496698    2.214413
     57          1           0        4.037935    1.451509    1.720502
     58          6           0        0.076238    2.670781    1.278722
     59          1           0       -0.622327    3.055524    2.044988
     60          1           0        0.916011    3.389482    1.264851
     61          6           0       -1.528273   -0.042395    3.659317
     62          1           0       -0.679547    0.635027    3.515616
     63          1           0       -2.479973    0.484900    3.576288
     64          1           0       -1.457646   -0.583689    4.603912
     65          6           0        3.309202    2.696677    0.122672
     66          1           0        3.683459    2.033621   -0.666112
     67          1           0        2.359887    3.093125   -0.255029
     68          6           0        4.289772    3.843313    0.356358
     69          1           0        4.473424    4.411685   -0.560485
     70          1           0        3.906192    4.539022    1.110738
     71          1           0        5.253170    3.466338    0.717565
     72          6           0        4.985996   -2.138876   -0.533186
     73          1           0        5.590300   -2.093858    0.374766
     74          1           0        5.450925   -2.848035   -1.226813
     75          6           0        4.795303   -0.774384   -1.197398
     76          1           0        4.545407   -0.032839   -0.433357
     77          1           0        5.665616   -0.434786   -1.762794
 ---------------------------------------------------------------------
 Rotational constants (GHZ):           0.1483725           0.0985243           0.0888021
 Leave Link  202 at Thu Feb  7 18:44:53 2019, MaxMem=   104857600 cpu:               2.5 elap:               0.1
 (Enter /home/xinyan/g16/l301.exe)
 Standard basis: 6-31G(d) (6D, 7F)
 Ernie: Thresh=  0.10000D-02 Tol=  0.10000D-05 Strict=F.
 There are   626 symmetry adapted cartesian basis functions of A   symmetry.
 There are   626 symmetry adapted basis functions of A   symmetry.
   626 basis functions,  1196 primitive gaussians,   626 cartesian basis functions
   140 alpha electrons      140 beta electrons
       nuclear repulsion energy      4940.7915336055 Hartrees.
 IExCor= 4336 DFT=T Ex+Corr=M062X ExCW=0 ScaHFX=  0.540000
 ScaDFX=  1.000000  1.000000  1.000000  1.000000 ScalE2=  1.000000  1.000000
 IRadAn=      5 IRanWt=     -1 IRanGd=            0 ICorTp=0 IEmpDi=131
 NAtoms=   77 NActive=   77 NUniq=   77 SFac= 1.00D+00 NAtFMM=   60 NAOKFM=T Big=T
 Integral buffers will be    131072 words long.
 Raffenetti 2 integral format.
 Two-electron integral symmetry is turned on.
 R6Disp:  Grimme-D3 Dispersion energy=       -0.0107151324 Hartrees.
 Nuclear repulsion after empirical dispersion term =     4940.7808184731 Hartrees.
 Leave Link  301 at Thu Feb  7 18:44:53 2019, MaxMem=   104857600 cpu:               3.0 elap:               0.2
 (Enter /home/xinyan/g16/l302.exe)
 NPDir=0 NMtPBC=     1 NCelOv=     1 NCel=       1 NClECP=     1 NCelD=      1
         NCelK=      1 NCelE2=     1 NClLst=     1 CellRange=     0.0.
 One-electron integrals computed using PRISM.
 One-electron integral symmetry used in STVInt
 PrsmSu:  requested number of processors reduced to:  23 ShMem   1 Linda.
 NBasis=   626 RedAO= T EigKep=  4.35D-04  NBF=   626
 NBsUse=   626 1.00D-06 EigRej= -1.00D+00 NBFU=   626
 Precomputing XC quadrature grid using
 IXCGrd= 4 IRadAn=           5 IRanWt=          -1 IRanGd=           0 AccXCQ= 0.00D+00.
 Generated NRdTot=       0 NPtTot=           0 NUsed=           0 NTot=          32
 NSgBfM=   617   616   617   617   617 MxSgAt=    77 MxSgA2=    77.
 Leave Link  302 at Thu Feb  7 18:44:57 2019, MaxMem=   104857600 cpu:              91.6 elap:               4.0
 (Enter /home/xinyan/g16/l303.exe)
 DipDrv:  MaxL=1.
 Leave Link  303 at Thu Feb  7 18:44:57 2019, MaxMem=   104857600 cpu:               4.9 elap:               0.2
 (Enter /home/xinyan/g16/l401.exe)
 ExpMin= 1.17D-01 ExpMax= 2.19D+04 ExpMxC= 3.30D+03 IAcc=3 IRadAn=         5 AccDes= 0.00D+00
 Harris functional with IExCor= 1009 and IRadAn=       5 diagonalized for initial guess.
 HarFok:  IExCor= 1009 AccDes= 0.00D+00 IRadAn=         5 IDoV= 1 UseB2=F ITyADJ=14
 ICtDFT=  3500011 ScaDFX=  1.000000  1.000000  1.000000  1.000000
 FoFCou: FMM=F IPFlag=           0 FMFlag=      100000 FMFlg1=        2001
         NFxFlg=           0 DoJE=T BraDBF=F KetDBF=T FulRan=T
         wScrn=  0.000000 ICntrl=       500 IOpCl=  0 I1Cent=   200000004 NGrid=           0
         NMat0=    1 NMatS0=      1 NMatT0=    0 NMatD0=    1 NMtDS0=    0 NMtDT0=    0
 Petite list used in FoFCou.
 Harris En= -1990.53425077097    
 JPrj=0 DoOrth=F DoCkMO=F.
 Leave Link  401 at Thu Feb  7 18:45:02 2019, MaxMem=   104857600 cpu:              98.5 elap:               4.2
 (Enter /home/xinyan/g16/l502.exe)
 Integral symmetry usage will be decided dynamically.
 Closed shell SCF:
 Using DIIS extrapolation, IDIIS=  1040.
 NGot=   104857600 LenX=   104051656 LenY=   103659154
 Requested convergence on RMS density matrix=1.00D-08 within 128 cycles.
 Requested convergence on MAX density matrix=1.00D-06.
 Requested convergence on             energy=1.00D-06.
 No special actions if energy rises.
 Fock matrices will be formed incrementally for  20 cycles.
 Integral accuracy reduced to 1.0D-05 until final iterations.

 Cycle   1  Pass 0  IDiag  1:
 FoFJK:  IHMeth= 1 ICntrl=       0 DoSepK=F KAlg= 0 I1Cent=           0 FoldK=F
 IRaf= 990000000 NMat=       1 IRICut=       1 DoRegI=T DoRafI=F ISym2E= 0 IDoP0=0 IntGTp=1.
 FoFCou: FMM=T IPFlag=           0 FMFlag=      100000 FMFlg1=        2001
         NFxFlg=           0 DoJE=F BraDBF=F KetDBF=F FulRan=T
         wScrn=  0.000000 ICntrl=         0 IOpCl=  0 I1Cent=           0 NGrid=           0
         NMat0=    1 NMatS0=      1 NMatT0=    0 NMatD0=    1 NMtDS0=    0 NMtDT0=    0
 Symmetry not used in FoFCou.
 FMM levels:  10  Number of levels for PrismC:   9
 E= -1990.29626371548    
 DIIS: error= 1.94D-02 at cycle   1 NSaved=   1.
 NSaved= 1 IEnMin= 1 EnMin= -1990.29626371548     IErMin= 1 ErrMin= 1.94D-02
 ErrMax= 1.94D-02  0.00D+00 EMaxC= 1.00D-01 BMatC= 1.24D+00 BMatP= 1.24D+00
 IDIUse=3 WtCom= 8.06D-01 WtEn= 1.94D-01
 Coeff-Com:  0.100D+01
 Coeff-En:   0.100D+01
 Coeff:      0.100D+01
 Gap=     0.373 Goal=   None    Shift=    0.000
 GapD=    0.373 DampG=1.000 DampE=0.500 DampFc=0.5000 IDamp=-1.
 Damping current iteration by 5.00D-01
 RMSDP=3.38D-03 MaxDP=3.43D-01              OVMax= 1.55D-01

 Cycle   2  Pass 0  IDiag  1:
 RMSU=  1.68D-03    CP:  9.88D-01
 E= -1990.81275927947     Delta-E=       -0.516495563991 Rises=F Damp=T
 DIIS: error= 8.46D-03 at cycle   2 NSaved=   2.
 NSaved= 2 IEnMin= 2 EnMin= -1990.81275927947     IErMin= 2 ErrMin= 8.46D-03
 ErrMax= 8.46D-03  0.00D+00 EMaxC= 1.00D-01 BMatC= 9.13D-02 BMatP= 1.24D+00
 IDIUse=3 WtCom= 9.15D-01 WtEn= 8.46D-02
 Coeff-Com: -0.321D-01 0.103D+01
 Coeff-En:   0.000D+00 0.100D+01
 Coeff:     -0.294D-01 0.103D+01
 Gap=     0.260 Goal=   None    Shift=    0.000
 RMSDP=8.16D-04 MaxDP=7.82D-02 DE=-5.16D-01 OVMax= 1.06D-01

 Cycle   3  Pass 0  IDiag  1:
 RMSU=  8.10D-04    CP:  9.82D-01  9.73D-01
 E= -1991.31830670004     Delta-E=       -0.505547420570 Rises=F Damp=F
 DIIS: error= 7.41D-03 at cycle   3 NSaved=   3.
 NSaved= 3 IEnMin= 3 EnMin= -1991.31830670004     IErMin= 3 ErrMin= 7.41D-03
 ErrMax= 7.41D-03  0.00D+00 EMaxC= 1.00D-01 BMatC= 4.52D-02 BMatP= 9.13D-02
 IDIUse=3 WtCom= 9.26D-01 WtEn= 7.41D-02
 Coeff-Com: -0.706D-01 0.429D+00 0.641D+00
 Coeff-En:   0.000D+00 0.000D+00 0.100D+01
 Coeff:     -0.654D-01 0.397D+00 0.668D+00
 Gap=     0.237 Goal=   None    Shift=    0.000
 RMSDP=4.75D-04 MaxDP=3.86D-02 DE=-5.06D-01 OVMax= 4.96D-02

 Cycle   4  Pass 0  IDiag  1:
 RMSU=  3.22D-04    CP:  9.85D-01  1.06D+00  6.15D-01
 E= -1991.34526033576     Delta-E=       -0.026953635723 Rises=F Damp=F
 DIIS: error= 4.09D-03 at cycle   4 NSaved=   4.
 NSaved= 4 IEnMin= 4 EnMin= -1991.34526033576     IErMin= 4 ErrMin= 4.09D-03
 ErrMax= 4.09D-03  0.00D+00 EMaxC= 1.00D-01 BMatC= 1.17D-02 BMatP= 4.52D-02
 IDIUse=3 WtCom= 9.59D-01 WtEn= 4.09D-02
 Coeff-Com: -0.267D-01 0.872D-01 0.365D+00 0.575D+00
 Coeff-En:   0.000D+00 0.000D+00 0.219D+00 0.781D+00
 Coeff:     -0.256D-01 0.836D-01 0.359D+00 0.583D+00
 Gap=     0.234 Goal=   None    Shift=    0.000
 RMSDP=1.99D-04 MaxDP=1.19D-02 DE=-2.70D-02 OVMax= 2.92D-02

 Cycle   5  Pass 0  IDiag  1:
 RMSU=  8.41D-05    CP:  9.84D-01  1.05D+00  7.41D-01  5.44D-01
 E= -1991.35496319611     Delta-E=       -0.009702860342 Rises=F Damp=F
 DIIS: error= 1.09D-03 at cycle   5 NSaved=   5.
 NSaved= 5 IEnMin= 5 EnMin= -1991.35496319611     IErMin= 5 ErrMin= 1.09D-03
 ErrMax= 1.09D-03  0.00D+00 EMaxC= 1.00D-01 BMatC= 5.90D-04 BMatP= 1.17D-02
 IDIUse=3 WtCom= 9.89D-01 WtEn= 1.09D-02
 Coeff-Com: -0.879D-02 0.208D-01 0.141D+00 0.290D+00 0.557D+00
 Coeff-En:   0.000D+00 0.000D+00 0.000D+00 0.000D+00 0.100D+01
 Coeff:     -0.869D-02 0.205D-01 0.140D+00 0.287D+00 0.562D+00
 Gap=     0.235 Goal=   None    Shift=    0.000
 RMSDP=5.11D-05 MaxDP=3.53D-03 DE=-9.70D-03 OVMax= 6.77D-03

 Cycle   6  Pass 0  IDiag  1:
 RMSU=  2.59D-05    CP:  9.84D-01  1.05D+00  7.40D-01  6.21D-01  5.70D-01
 E= -1991.35547568538     Delta-E=       -0.000512489273 Rises=F Damp=F
 DIIS: error= 3.32D-04 at cycle   6 NSaved=   6.
 NSaved= 6 IEnMin= 6 EnMin= -1991.35547568538     IErMin= 6 ErrMin= 3.32D-04
 ErrMax= 3.32D-04  0.00D+00 EMaxC= 1.00D-01 BMatC= 5.54D-05 BMatP= 5.90D-04
 IDIUse=3 WtCom= 9.97D-01 WtEn= 3.32D-03
 EnCoef did     1 forward-backward iterations
 Coeff-Com: -0.159D-02 0.162D-02 0.319D-01 0.827D-01 0.287D+00 0.599D+00
 Coeff-En:   0.000D+00 0.000D+00 0.000D+00 0.000D+00 0.465D-03 0.100D+01
 Coeff:     -0.158D-02 0.162D-02 0.318D-01 0.824D-01 0.286D+00 0.600D+00
 Gap=     0.235 Goal=   None    Shift=    0.000
 RMSDP=1.43D-05 MaxDP=7.98D-04 DE=-5.12D-04 OVMax= 2.09D-03

 Cycle   7  Pass 0  IDiag  1:
 RMSU=  8.70D-06    CP:  9.84D-01  1.05D+00  7.43D-01  6.20D-01  6.52D-01
                    CP:  6.69D-01
 E= -1991.35552826746     Delta-E=       -0.000052582080 Rises=F Damp=F
 DIIS: error= 3.95D-05 at cycle   7 NSaved=   7.
 NSaved= 7 IEnMin= 7 EnMin= -1991.35552826746     IErMin= 7 ErrMin= 3.95D-05
 ErrMax= 3.95D-05  0.00D+00 EMaxC= 1.00D-01 BMatC= 3.20D-06 BMatP= 5.54D-05
 IDIUse=1 WtCom= 1.00D+00 WtEn= 0.00D+00
 Coeff-Com:  0.216D-03-0.135D-02-0.112D-02 0.557D-02 0.671D-01 0.245D+00
 Coeff-Com:  0.684D+00
 Coeff:      0.216D-03-0.135D-02-0.112D-02 0.557D-02 0.671D-01 0.245D+00
 Coeff:      0.684D+00
 Gap=     0.235 Goal=   None    Shift=    0.000
 RMSDP=4.15D-06 MaxDP=2.27D-04 DE=-5.26D-05 OVMax= 3.24D-04

 Initial convergence to 1.0D-05 achieved.  Increase integral accuracy.
 Cycle   8  Pass 1  IDiag  1:
 E= -1991.35572002719     Delta-E=       -0.000191759732 Rises=F Damp=F
 DIIS: error= 1.58D-04 at cycle   1 NSaved=   1.
 NSaved= 1 IEnMin= 1 EnMin= -1991.35572002719     IErMin= 1 ErrMin= 1.58D-04
 ErrMax= 1.58D-04  0.00D+00 EMaxC= 1.00D-01 BMatC= 1.31D-05 BMatP= 1.31D-05
 IDIUse=3 WtCom= 9.98D-01 WtEn= 1.58D-03
 Coeff-Com:  0.100D+01
 Coeff-En:   0.100D+01
 Coeff:      0.100D+01
 Gap=     0.235 Goal=   None    Shift=    0.000
 RMSDP=4.15D-06 MaxDP=2.27D-04 DE=-1.92D-04 OVMax= 4.46D-04

 Cycle   9  Pass 1  IDiag  1:
 RMSU=  7.30D-05    CP:  1.00D+00
 E= -1991.35573213097     Delta-E=       -0.000012103781 Rises=F Damp=F
 DIIS: error= 1.65D-05 at cycle   2 NSaved=   2.
 NSaved= 2 IEnMin= 2 EnMin= -1991.35573213097     IErMin= 2 ErrMin= 1.65D-05
 ErrMax= 1.65D-05  0.00D+00 EMaxC= 1.00D-01 BMatC= 5.81D-07 BMatP= 1.31D-05
 IDIUse=1 WtCom= 1.00D+00 WtEn= 0.00D+00
 Coeff-Com:  0.470D-01 0.953D+00
 Coeff:      0.470D-01 0.953D+00
 Gap=     0.235 Goal=   None    Shift=    0.000
 RMSDP=3.60D-06 MaxDP=1.84D-04 DE=-1.21D-05 OVMax= 2.59D-04

 Cycle  10  Pass 1  IDiag  1:
 RMSU=  2.89D-06    CP:  1.00D+00  1.03D+00
 E= -1991.35573187157     Delta-E=        0.000000259402 Rises=F Damp=F
 DIIS: error= 2.97D-05 at cycle   3 NSaved=   3.
 NSaved= 3 IEnMin= 2 EnMin= -1991.35573213097     IErMin= 2 ErrMin= 1.65D-05
 ErrMax= 2.97D-05  0.00D+00 EMaxC= 1.00D-01 BMatC= 9.20D-07 BMatP= 5.81D-07
 IDIUse=1 WtCom= 1.00D+00 WtEn= 0.00D+00
 Coeff-Com: -0.150D-01 0.564D+00 0.451D+00
 Coeff:     -0.150D-01 0.564D+00 0.451D+00
 Gap=     0.235 Goal=   None    Shift=    0.000
 RMSDP=1.58D-06 MaxDP=1.07D-04 DE= 2.59D-07 OVMax= 1.72D-04

 Cycle  11  Pass 1  IDiag  1:
 RMSU=  6.24D-07    CP:  1.00D+00  1.03D+00  5.06D-01
 E= -1991.35573265536     Delta-E=       -0.000000783789 Rises=F Damp=F
 DIIS: error= 4.24D-06 at cycle   4 NSaved=   4.
 NSaved= 4 IEnMin= 4 EnMin= -1991.35573265536     IErMin= 4 ErrMin= 4.24D-06
 ErrMax= 4.24D-06  0.00D+00 EMaxC= 1.00D-01 BMatC= 9.66D-09 BMatP= 5.81D-07
 IDIUse=1 WtCom= 1.00D+00 WtEn= 0.00D+00
 Coeff-Com: -0.791D-02 0.250D+00 0.214D+00 0.544D+00
 Coeff:     -0.791D-02 0.250D+00 0.214D+00 0.544D+00
 Gap=     0.235 Goal=   None    Shift=    0.000
 RMSDP=2.12D-07 MaxDP=1.22D-05 DE=-7.84D-07 OVMax= 2.73D-05

 Cycle  12  Pass 1  IDiag  1:
 RMSU=  1.91D-07    CP:  1.00D+00  1.03D+00  5.21D-01  8.74D-01
 E= -1991.35573266429     Delta-E=       -0.000000008937 Rises=F Damp=F
 DIIS: error= 1.57D-06 at cycle   5 NSaved=   5.
 NSaved= 5 IEnMin= 5 EnMin= -1991.35573266429     IErMin= 5 ErrMin= 1.57D-06
 ErrMax= 1.57D-06  0.00D+00 EMaxC= 1.00D-01 BMatC= 9.90D-10 BMatP= 9.66D-09
 IDIUse=1 WtCom= 1.00D+00 WtEn= 0.00D+00
 Coeff-Com: -0.463D-03-0.165D-02 0.302D-02 0.221D+00 0.778D+00
 Coeff:     -0.463D-03-0.165D-02 0.302D-02 0.221D+00 0.778D+00
 Gap=     0.235 Goal=   None    Shift=    0.000
 RMSDP=9.08D-08 MaxDP=3.59D-06 DE=-8.94D-09 OVMax= 1.01D-05

 Cycle  13  Pass 1  IDiag  1:
 RMSU=  6.72D-08    CP:  1.00D+00  1.03D+00  5.25D-01  9.59D-01  8.73D-01
 E= -1991.35573266534     Delta-E=       -0.000000001047 Rises=F Damp=F
 DIIS: error= 4.46D-07 at cycle   6 NSaved=   6.
 NSaved= 6 IEnMin= 6 EnMin= -1991.35573266534     IErMin= 6 ErrMin= 4.46D-07
 ErrMax= 4.46D-07  0.00D+00 EMaxC= 1.00D-01 BMatC= 2.23D-10 BMatP= 9.90D-10
 IDIUse=1 WtCom= 1.00D+00 WtEn= 0.00D+00
 Coeff-Com:  0.886D-03-0.365D-01-0.290D-01 0.466D-01 0.414D+00 0.604D+00
 Coeff:      0.886D-03-0.365D-01-0.290D-01 0.466D-01 0.414D+00 0.604D+00
 Gap=     0.235 Goal=   None    Shift=    0.000
 RMSDP=3.44D-08 MaxDP=1.96D-06 DE=-1.05D-09 OVMax= 4.10D-06

 Cycle  14  Pass 1  IDiag  1:
 RMSU=  2.63D-08    CP:  1.00D+00  1.03D+00  5.26D-01  9.78D-01  9.48D-01
                    CP:  8.30D-01
 E= -1991.35573266554     Delta-E=       -0.000000000197 Rises=F Damp=F
 DIIS: error= 1.36D-07 at cycle   7 NSaved=   7.
 NSaved= 7 IEnMin= 7 EnMin= -1991.35573266554     IErMin= 7 ErrMin= 1.36D-07
 ErrMax= 1.36D-07  0.00D+00 EMaxC= 1.00D-01 BMatC= 1.80D-11 BMatP= 2.23D-10
 IDIUse=1 WtCom= 1.00D+00 WtEn= 0.00D+00
 Coeff-Com:  0.429D-03-0.154D-01-0.129D-01-0.107D-02 0.936D-01 0.261D+00
 Coeff-Com:  0.675D+00
 Coeff:      0.429D-03-0.154D-01-0.129D-01-0.107D-02 0.936D-01 0.261D+00
 Coeff:      0.675D+00
 Gap=     0.235 Goal=   None    Shift=    0.000
 RMSDP=1.09D-08 MaxDP=5.48D-07 DE=-1.97D-10 OVMax= 1.07D-06

 Cycle  15  Pass 1  IDiag  1:
 RMSU=  8.05D-09    CP:  1.00D+00  1.03D+00  5.27D-01  9.82D-01  9.54D-01
                    CP:  9.23D-01  1.03D+00
 E= -1991.35573266557     Delta-E=       -0.000000000036 Rises=F Damp=F
 DIIS: error= 4.16D-08 at cycle   8 NSaved=   8.
 NSaved= 8 IEnMin= 8 EnMin= -1991.35573266557     IErMin= 8 ErrMin= 4.16D-08
 ErrMax= 4.16D-08  0.00D+00 EMaxC= 1.00D-01 BMatC= 2.34D-12 BMatP= 1.80D-11
 IDIUse=1 WtCom= 1.00D+00 WtEn= 0.00D+00
 Coeff-Com: -0.109D-04 0.129D-02 0.671D-03-0.950D-02-0.500D-01-0.159D-01
 Coeff-Com:  0.258D+00 0.815D+00
 Coeff:     -0.109D-04 0.129D-02 0.671D-03-0.950D-02-0.500D-01-0.159D-01
 Coeff:      0.258D+00 0.815D+00
 Gap=     0.235 Goal=   None    Shift=    0.000
 RMSDP=4.93D-09 MaxDP=2.93D-07 DE=-3.64D-11 OVMax= 8.17D-07

 SCF Done:  E(RM062X) =  -1991.35573267     A.U. after   15 cycles
            NFock= 15  Conv=0.49D-08     -V/T= 2.0076
 KE= 1.976411029696D+03 PE=-1.453379285096D+04 EE= 5.625245270128D+03
 Leave Link  502 at Thu Feb  7 18:47:44 2019, MaxMem=   104857600 cpu:            3894.0 elap:             162.6
 (Enter /home/xinyan/g16/l601.exe)
 Copying SCF densities to generalized density rwf, IOpCl= 0 IROHF=0.

 **********************************************************************

            Population analysis using the SCF density.

 **********************************************************************

 Orbital symmetries:
       Occupied  (A) (A) (A) (A) (A) (A) (A) (A) (A) (A) (A) (A)
                 (A) (A) (A) (A) (A) (A) (A) (A) (A) (A) (A) (A)
                 (A) (A) (A) (A) (A) (A) (A) (A) (A) (A) (A) (A)
                 (A) (A) (A) (A) (A) (A) (A) (A) (A) (A) (A) (A)
                 (A) (A) (A) (A) (A) (A) (A) (A) (A) (A) (A) (A)
                 (A) (A) (A) (A) (A) (A) (A) (A) (A) (A) (A) (A)
                 (A) (A) (A) (A) (A) (A) (A) (A) (A) (A) (A) (A)
                 (A) (A) (A) (A) (A) (A) (A) (A) (A) (A) (A) (A)
                 (A) (A) (A) (A) (A) (A) (A) (A) (A) (A) (A) (A)
                 (A) (A) (A) (A) (A) (A) (A) (A) (A) (A) (A) (A)
                 (A) (A) (A) (A) (A) (A) (A) (A) (A) (A) (A) (A)
                 (A) (A) (A) (A) (A) (A) (A) (A)
       Virtual   (A) (A) (A) (A) (A) (A) (A) (A) (A) (A) (A) (A)
                 (A) (A) (A) (A) (A) (A) (A) (A) (A) (A) (A) (A)
                 (A) (A) (A) (A) (A) (A) (A) (A) (A) (A) (A) (A)
                 (A) (A) (A) (A) (A) (A) (A) (A) (A) (A) (A) (A)
                 (A) (A) (A) (A) (A) (A) (A) (A) (A) (A) (A) (A)
                 (A) (A) (A) (A) (A) (A) (A) (A) (A) (A) (A) (A)
                 (A) (A) (A) (A) (A) (A) (A) (A) (A) (A) (A) (A)
                 (A) (A) (A) (A) (A) (A) (A) (A) (A) (A) (A) (A)
                 (A) (A) (A) (A) (A) (A) (A) (A) (A) (A) (A) (A)
                 (A) (A) (A) (A) (A) (A) (A) (A) (A) (A) (A) (A)
                 (A) (A) (A) (A) (A) (A) (A) (A) (A) (A) (A) (A)
                 (A) (A) (A) (A) (A) (A) (A) (A) (A) (A) (A) (A)
                 (A) (A) (A) (A) (A) (A) (A) (A) (A) (A) (A) (A)
                 (A) (A) (A) (A) (A) (A) (A) (A) (A) (A) (A) (A)
                 (A) (A) (A) (A) (A) (A) (A) (A) (A) (A) (A) (A)
                 (A) (A) (A) (A) (A) (A) (A) (A) (A) (A) (A) (A)
                 (A) (A) (A) (A) (A) (A) (A) (A) (A) (A) (A) (A)
                 (A) (A) (A) (A) (A) (A) (A) (A) (A) (A) (A) (A)
                 (A) (A) (A) (A) (A) (A) (A) (A) (A) (A) (A) (A)
                 (A) (A) (A) (A) (A) (A) (A) (A) (A) (A) (A) (A)
                 (A) (A) (A) (A) (A) (A) (A) (A) (A) (A) (A) (A)
                 (A) (A) (A) (A) (A) (A) (A) (A) (A) (A) (A) (A)
                 (A) (A) (A) (A) (A) (A) (A) (A) (A) (A) (A) (A)
                 (A) (A) (A) (A) (A) (A) (A) (A) (A) (A) (A) (A)
                 (A) (A) (A) (A) (A) (A) (A) (A) (A) (A) (A) (A)
                 (A) (A) (A) (A) (A) (A) (A) (A) (A) (A) (A) (A)
                 (A) (A) (A) (A) (A) (A) (A) (A) (A) (A) (A) (A)
                 (A) (A) (A) (A) (A) (A) (A) (A) (A) (A) (A) (A)
                 (A) (A) (A) (A) (A) (A) (A) (A) (A) (A) (A) (A)
                 (A) (A) (A) (A) (A) (A) (A) (A) (A) (A) (A) (A)
                 (A) (A) (A) (A) (A) (A) (A) (A) (A) (A) (A) (A)
                 (A) (A) (A) (A) (A) (A) (A) (A) (A) (A) (A) (A)
                 (A) (A) (A) (A) (A) (A) (A) (A) (A) (A) (A) (A)
                 (A) (A) (A) (A) (A) (A) (A) (A) (A) (A) (A) (A)
                 (A) (A) (A) (A) (A) (A) (A) (A) (A) (A) (A) (A)
                 (A) (A) (A) (A) (A) (A) (A) (A) (A) (A) (A) (A)
                 (A) (A) (A) (A) (A) (A) (A) (A) (A) (A) (A) (A)
                 (A) (A) (A) (A) (A) (A) (A) (A) (A) (A) (A) (A)
                 (A) (A) (A) (A) (A) (A) (A) (A) (A) (A) (A) (A)
                 (A) (A) (A) (A) (A) (A) (A) (A) (A) (A) (A) (A)
                 (A) (A) (A) (A) (A) (A)
 The electronic state is 1-A.
 Alpha  occ. eigenvalues --  -90.14014 -19.61827 -19.61516 -19.59310 -19.55557
 Alpha  occ. eigenvalues --  -19.54089 -14.85282 -14.80343 -14.75141 -10.63517
 Alpha  occ. eigenvalues --  -10.63378 -10.62741 -10.62227 -10.60848 -10.59331
 Alpha  occ. eigenvalues --  -10.58294 -10.58201 -10.57941 -10.57141 -10.56678
 Alpha  occ. eigenvalues --  -10.55831 -10.55676 -10.55638 -10.55162 -10.54780
 Alpha  occ. eigenvalues --  -10.54763 -10.54684 -10.54636 -10.54631 -10.54326
 Alpha  occ. eigenvalues --  -10.54146 -10.53772 -10.53004 -10.51575 -10.51490
 Alpha  occ. eigenvalues --  -10.50716  -8.45010  -6.37231  -6.37178  -6.37066
 Alpha  occ. eigenvalues --   -1.21820  -1.14156  -1.13513  -1.10040  -1.09184
 Alpha  occ. eigenvalues --   -1.04724  -1.03681  -1.01349  -0.95716  -0.94761
 Alpha  occ. eigenvalues --   -0.93468  -0.90232  -0.88724  -0.86160  -0.86017
 Alpha  occ. eigenvalues --   -0.84694  -0.84183  -0.84100  -0.82990  -0.82588
 Alpha  occ. eigenvalues --   -0.76916  -0.76677  -0.75754  -0.72803  -0.72585
 Alpha  occ. eigenvalues --   -0.71607  -0.68327  -0.68127  -0.67774  -0.67148
 Alpha  occ. eigenvalues --   -0.66693  -0.65163  -0.64469  -0.63376  -0.60623
 Alpha  occ. eigenvalues --   -0.60388  -0.59843  -0.59369  -0.57884  -0.57632
 Alpha  occ. eigenvalues --   -0.57075  -0.56358  -0.55324  -0.54551  -0.53938
 Alpha  occ. eigenvalues --   -0.53435  -0.52638  -0.52368  -0.52182  -0.51534
 Alpha  occ. eigenvalues --   -0.51433  -0.51251  -0.50786  -0.50080  -0.49788
 Alpha  occ. eigenvalues --   -0.49270  -0.48858  -0.48290  -0.48157  -0.47986
 Alpha  occ. eigenvalues --   -0.47736  -0.47275  -0.47065  -0.46665  -0.46091
 Alpha  occ. eigenvalues --   -0.45150  -0.45125  -0.44737  -0.43912  -0.43232
 Alpha  occ. eigenvalues --   -0.42422  -0.42312  -0.41377  -0.41215  -0.41180
 Alpha  occ. eigenvalues --   -0.40769  -0.40441  -0.40082  -0.39996  -0.39482
 Alpha  occ. eigenvalues --   -0.39376  -0.38840  -0.38443  -0.37972  -0.37869
 Alpha  occ. eigenvalues --   -0.37374  -0.37131  -0.36853  -0.35633  -0.35471
 Alpha  occ. eigenvalues --   -0.34934  -0.34194  -0.32503  -0.30463  -0.29580
 Alpha  occ. eigenvalues --   -0.28665  -0.28135  -0.27780  -0.26382  -0.24866
 Alpha virt. eigenvalues --   -0.01398   0.00418   0.03523   0.04102   0.10221
 Alpha virt. eigenvalues --    0.10869   0.11536   0.12157   0.13362   0.13421
 Alpha virt. eigenvalues --    0.14057   0.14583   0.15267   0.15405   0.15447
 Alpha virt. eigenvalues --    0.15689   0.16147   0.16673   0.16898   0.17179
 Alpha virt. eigenvalues --    0.17821   0.18149   0.18341   0.18587   0.18953
 Alpha virt. eigenvalues --    0.19044   0.19332   0.19788   0.19970   0.20090
 Alpha virt. eigenvalues --    0.20376   0.20678   0.21051   0.21152   0.21425
 Alpha virt. eigenvalues --    0.21990   0.22183   0.22384   0.22674   0.23226
 Alpha virt. eigenvalues --    0.23570   0.23778   0.24431   0.24512   0.24675
 Alpha virt. eigenvalues --    0.24871   0.25477   0.25661   0.25989   0.26535
 Alpha virt. eigenvalues --    0.26905   0.27613   0.27720   0.28030   0.28557
 Alpha virt. eigenvalues --    0.28802   0.29456   0.29729   0.30135   0.30635
 Alpha virt. eigenvalues --    0.30830   0.31434   0.32103   0.32204   0.32600
 Alpha virt. eigenvalues --    0.33381   0.33659   0.34291   0.35221   0.35520
 Alpha virt. eigenvalues --    0.35984   0.37262   0.37708   0.38046   0.38582
 Alpha virt. eigenvalues --    0.39524   0.40556   0.40906   0.42344   0.42985
 Alpha virt. eigenvalues --    0.44720   0.45273   0.46044   0.47692   0.49105
 Alpha virt. eigenvalues --    0.49537   0.51233   0.52519   0.53525   0.54688
 Alpha virt. eigenvalues --    0.55168   0.55686   0.56116   0.57037   0.57312
 Alpha virt. eigenvalues --    0.57835   0.58052   0.58881   0.59409   0.59676
 Alpha virt. eigenvalues --    0.60045   0.60373   0.60563   0.60783   0.61029
 Alpha virt. eigenvalues --    0.61554   0.61870   0.62401   0.62494   0.62909
 Alpha virt. eigenvalues --    0.63227   0.63858   0.64491   0.64886   0.65464
 Alpha virt. eigenvalues --    0.65910   0.66166   0.66624   0.67409   0.67902
 Alpha virt. eigenvalues --    0.68317   0.68938   0.69432   0.69859   0.70329
 Alpha virt. eigenvalues --    0.70875   0.71498   0.71766   0.72779   0.73109
 Alpha virt. eigenvalues --    0.73260   0.74395   0.74669   0.75018   0.75307
 Alpha virt. eigenvalues --    0.76594   0.76772   0.77206   0.77790   0.78185
 Alpha virt. eigenvalues --    0.78766   0.78880   0.79274   0.80241   0.80514
 Alpha virt. eigenvalues --    0.81008   0.81610   0.82497   0.83547   0.84360
 Alpha virt. eigenvalues --    0.84592   0.84980   0.85214   0.85736   0.86057
 Alpha virt. eigenvalues --    0.87415   0.87856   0.88556   0.89087   0.89603
 Alpha virt. eigenvalues --    0.89903   0.90046   0.90445   0.91053   0.91268
 Alpha virt. eigenvalues --    0.91831   0.92152   0.92524   0.92752   0.93263
 Alpha virt. eigenvalues --    0.93552   0.93965   0.94324   0.94782   0.95125
 Alpha virt. eigenvalues --    0.95518   0.95990   0.96023   0.96373   0.96895
 Alpha virt. eigenvalues --    0.96920   0.97511   0.97589   0.98219   0.98459
 Alpha virt. eigenvalues --    0.98694   0.99187   0.99542   0.99705   1.00604
 Alpha virt. eigenvalues --    1.00752   1.01167   1.01561   1.02011   1.02334
 Alpha virt. eigenvalues --    1.02843   1.03167   1.03807   1.04426   1.04891
 Alpha virt. eigenvalues --    1.05666   1.06345   1.07448   1.08001   1.08188
 Alpha virt. eigenvalues --    1.08963   1.10025   1.10560   1.11111   1.11790
 Alpha virt. eigenvalues --    1.12390   1.12661   1.13568   1.14431   1.15290
 Alpha virt. eigenvalues --    1.15621   1.16648   1.18457   1.18581   1.18679
 Alpha virt. eigenvalues --    1.19306   1.19647   1.20074   1.20928   1.21325
 Alpha virt. eigenvalues --    1.23216   1.23708   1.24381   1.24787   1.25200
 Alpha virt. eigenvalues --    1.26102   1.26629   1.27026   1.28964   1.30371
 Alpha virt. eigenvalues --    1.31085   1.31259   1.31571   1.32407   1.32855
 Alpha virt. eigenvalues --    1.33310   1.34195   1.34698   1.35678   1.36550
 Alpha virt. eigenvalues --    1.37338   1.38293   1.38707   1.40665   1.40977
 Alpha virt. eigenvalues --    1.42136   1.43480   1.44981   1.45847   1.46219
 Alpha virt. eigenvalues --    1.46957   1.47920   1.49351   1.49677   1.49923
 Alpha virt. eigenvalues --    1.50833   1.52021   1.52107   1.53341   1.53692
 Alpha virt. eigenvalues --    1.53892   1.54451   1.55063   1.55377   1.56155
 Alpha virt. eigenvalues --    1.57137   1.57682   1.58847   1.59128   1.60485
 Alpha virt. eigenvalues --    1.61065   1.62509   1.63939   1.64411   1.67028
 Alpha virt. eigenvalues --    1.67512   1.68785   1.69931   1.70355   1.72586
 Alpha virt. eigenvalues --    1.73586   1.74162   1.74804   1.77010   1.77425
 Alpha virt. eigenvalues --    1.77955   1.78098   1.79988   1.80592   1.81292
 Alpha virt. eigenvalues --    1.82602   1.84466   1.84529   1.85047   1.85472
 Alpha virt. eigenvalues --    1.86272   1.86345   1.87100   1.87593   1.88691
 Alpha virt. eigenvalues --    1.89096   1.89749   1.89997   1.90384   1.90869
 Alpha virt. eigenvalues --    1.91981   1.92077   1.93393   1.93525   1.93923
 Alpha virt. eigenvalues --    1.94593   1.95254   1.95690   1.96158   1.96775
 Alpha virt. eigenvalues --    1.97216   1.98012   1.98590   1.99507   2.00378
 Alpha virt. eigenvalues --    2.01047   2.01458   2.01877   2.03080   2.03262
 Alpha virt. eigenvalues --    2.03838   2.05089   2.05589   2.05923   2.06175
 Alpha virt. eigenvalues --    2.06801   2.07080   2.07545   2.07773   2.09057
 Alpha virt. eigenvalues --    2.09526   2.09869   2.10022   2.10845   2.11589
 Alpha virt. eigenvalues --    2.12241   2.12723   2.13919   2.14338   2.15071
 Alpha virt. eigenvalues --    2.15286   2.16151   2.16998   2.17822   2.18642
 Alpha virt. eigenvalues --    2.19138   2.20326   2.20669   2.20796   2.21444
 Alpha virt. eigenvalues --    2.22262   2.22960   2.23678   2.24143   2.24898
 Alpha virt. eigenvalues --    2.25109   2.25378   2.26292   2.27214   2.27735
 Alpha virt. eigenvalues --    2.28731   2.29113   2.30247   2.31248   2.32028
 Alpha virt. eigenvalues --    2.32818   2.33467   2.34530   2.35113   2.35441
 Alpha virt. eigenvalues --    2.36467   2.36854   2.37460   2.38039   2.38521
 Alpha virt. eigenvalues --    2.39630   2.40167   2.40915   2.41619   2.42799
 Alpha virt. eigenvalues --    2.44060   2.44143   2.45457   2.46368   2.46803
 Alpha virt. eigenvalues --    2.48739   2.49658   2.50933   2.52175   2.52747
 Alpha virt. eigenvalues --    2.53277   2.54296   2.54850   2.56539   2.59054
 Alpha virt. eigenvalues --    2.60671   2.61362   2.61628   2.62188   2.63490
 Alpha virt. eigenvalues --    2.64090   2.64950   2.65620   2.68029   2.68624
 Alpha virt. eigenvalues --    2.68983   2.69194   2.69686   2.70384   2.71314
 Alpha virt. eigenvalues --    2.72592   2.74103   2.75605   2.76528   2.78202
 Alpha virt. eigenvalues --    2.78638   2.78814   2.79951   2.80646   2.81716
 Alpha virt. eigenvalues --    2.83414   2.84183   2.86323   2.86705   2.88263
 Alpha virt. eigenvalues --    2.91488   2.93035   2.93196   2.94106   2.95378
 Alpha virt. eigenvalues --    2.96970   2.99899   3.00128   3.01143   3.10813
 Alpha virt. eigenvalues --    3.14989   3.20306   3.23802   3.41642   3.43103
 Alpha virt. eigenvalues --    3.93760   4.01472   4.05451   4.10142   4.12464
 Alpha virt. eigenvalues --    4.14025   4.15811   4.16584   4.18373   4.19043
 Alpha virt. eigenvalues --    4.20514   4.22906   4.24277   4.26088   4.26767
 Alpha virt. eigenvalues --    4.28979   4.31238   4.32991   4.34813   4.36066
 Alpha virt. eigenvalues --    4.37629   4.39263   4.40743   4.42863   4.44629
 Alpha virt. eigenvalues --    4.46706   4.55152   4.57512   4.58343   4.60081
 Alpha virt. eigenvalues --    4.62273   4.65254   4.69868   4.74988   4.76236
 Alpha virt. eigenvalues --    4.77806
          Condensed to atoms (all electrons):
 Mulliken charges:
               1
     1  C   -0.306862
     2  C   -0.307298
     3  C   -0.311627
     4  C   -0.063360
     5  C    0.067776
     6  C   -0.307038
     7  H    0.173700
     8  H    0.162731
     9  H    0.165755
    10  H    0.152578
    11  H    0.163701
    12  H    0.208993
    13  H    0.172143
    14  H    0.189369
    15  H    0.160753
    16  H    0.156788
    17  N   -0.433997
    18  C    0.086911
    19  C    0.087309
    20  C   -0.216281
    21  H    0.205038
    22  C   -0.224377
    23  H    0.247664
    24  C    0.440896
    25  H    0.192405
    26  H    0.209360
    27  N   -0.519638
    28  C   -0.161854
    29  H    0.170845
    30  H    0.212288
    31  C   -0.146307
    32  H    0.164231
    33  H    0.203091
    34  N   -0.817858
    35  S    1.240582
    36  O   -0.608881
    37  O   -0.606445
    38  C    0.053988
    39  C   -0.198247
    40  C   -0.191421
    41  C   -0.174744
    42  C   -0.163448
    43  C   -0.206292
    44  H    0.224072
    45  H    0.137518
    46  H    0.154120
    47  H    0.158132
    48  H    0.153979
    49  O   -0.655719
    50  H    0.453995
    51  C    0.685815
    52  O   -0.614666
    53  O   -0.675740
    54  H    0.449672
    55  C   -0.340231
    56  H    0.165553
    57  H    0.151303
    58  C   -0.051745
    59  H    0.108532
    60  H    0.132171
    61  C   -0.670029
    62  H    0.266829
    63  H    0.198848
    64  H    0.220038
    65  C   -0.288737
    66  H    0.142170
    67  H    0.151851
    68  C   -0.476759
    69  H    0.151612
    70  H    0.153133
    71  H    0.148569
    72  C   -0.334718
    73  H    0.184711
    74  H    0.163308
    75  C   -0.337159
    76  H    0.198845
    77  H    0.167805
 Sum of Mulliken charges =  -0.00000
 Mulliken charges with hydrogens summed into heavy atoms:
               1
     1  C    0.009417
     2  C    0.021188
     3  C    0.018861
     4  C    0.145633
     5  C    0.239919
     6  C    0.043084
    17  N   -0.433997
    18  C    0.291949
    19  C    0.334973
    20  C   -0.023877
    22  C   -0.015017
    24  C    0.440896
    27  N   -0.519638
    28  C    0.221279
    31  C    0.221015
    34  N   -0.363863
    35  S    1.240582
    36  O   -0.608881
    37  O   -0.606445
    38  C    0.053988
    39  C    0.025826
    40  C   -0.053903
    41  C   -0.020624
    42  C   -0.005316
    43  C   -0.052313
    49  O   -0.655719
    51  C    0.685815
    52  O   -0.614666
    53  O   -0.226067
    55  C   -0.023375
    58  C    0.188958
    61  C    0.015686
    65  C    0.005284
    68  C   -0.023445
    72  C    0.013301
    75  C    0.029492
 Electronic spatial extent (au):  <R**2>=          14712.1776
 Charge=             -0.0000 electrons
 Dipole moment (field-independent basis, Debye):
    X=             -2.0558    Y=             -1.9178    Z=             -5.9634  Tot=              6.5929
 Quadrupole moment (field-independent basis, Debye-Ang):
   XX=           -204.4402   YY=           -224.5909   ZZ=           -218.8479
   XY=            -12.7175   XZ=             -3.4562   YZ=             10.5248
 Traceless Quadrupole moment (field-independent basis, Debye-Ang):
   XX=             11.5195   YY=             -8.6312   ZZ=             -2.8882
   XY=            -12.7175   XZ=             -3.4562   YZ=             10.5248
 Octapole moment (field-independent basis, Debye-Ang**2):
  XXX=             25.3810  YYY=            -54.9468  ZZZ=             16.4336  XYY=             11.5980
  XXY=            -21.1625  XXZ=            -35.9345  XZZ=            -19.8295  YZZ=             13.8060
  YYZ=             11.9013  XYZ=            -17.3143
 Hexadecapole moment (field-independent basis, Debye-Ang**3):
 XXXX=          -9919.6761 YYYY=          -5643.2860 ZZZZ=          -3712.7039 XXXY=           -192.9377
 XXXZ=             -6.9577 YYYX=           -108.2515 YYYZ=             47.3731 ZZZX=           -108.9419
 ZZZY=             -7.6692 XXYY=          -2607.1838 XXZZ=          -2353.3183 YYZZ=          -1674.8929
 XXYZ=             48.6655 YYXZ=             52.4660 ZZXY=            -47.1076
 N-N= 4.940780818473D+03 E-N=-1.453379283089D+04  KE= 1.976411029696D+03
 No NMR shielding tensors so no spin-rotation constants.
 Leave Link  601 at Thu Feb  7 18:47:45 2019, MaxMem=   104857600 cpu:              28.9 elap:               1.3
 (Enter /home/xinyan/g16/l701.exe)
 ... and contract with generalized density number  0.
 Compute integral first derivatives.
 R6Disp: Adding Grimme-D3 dispersion energy 1st derivatives to the gradient.
 Leave Link  701 at Thu Feb  7 18:47:46 2019, MaxMem=   104857600 cpu:              20.4 elap:               0.9
 (Enter /home/xinyan/g16/l702.exe)
 L702 exits ... SP integral derivatives will be done elsewhere.
 Leave Link  702 at Thu Feb  7 18:47:46 2019, MaxMem=   104857600 cpu:               1.4 elap:               0.1
 (Enter /home/xinyan/g16/l703.exe)
 Integral derivatives from FoFJK, PRISM(SPDF).
 Compute integral first derivatives, UseDBF=F ICtDFT=           0.
 Calling FoFJK, ICntrl=      2127 FMM=T ISym2X=0 I1Cent= 0 IOpClX= 0 NMat=1 NMatS=1 NMatT=0.
 FoFJK:  IHMeth= 1 ICntrl=    2127 DoSepK=F KAlg= 0 I1Cent=           0 FoldK=F
 IRaf=         0 NMat=       1 IRICut=       1 DoRegI=T DoRafI=F ISym2E= 0 IDoP0=0 IntGTp=1.
 FoFCou: FMM=T IPFlag=           0 FMFlag=      100000 FMFlg1=        2001
         NFxFlg=           0 DoJE=F BraDBF=F KetDBF=F FulRan=T
         wScrn=  0.000000 ICntrl=      2127 IOpCl=  0 I1Cent=           0 NGrid=           0
         NMat0=    1 NMatS0=      1 NMatT0=    0 NMatD0=    1 NMtDS0=    0 NMtDT0=    0
 Symmetry not used in FoFCou.
 FMM levels:  10  Number of levels for PrismC:   9
 Leave Link  703 at Thu Feb  7 18:48:19 2019, MaxMem=   104857600 cpu:             777.3 elap:              32.5
 (Enter /home/xinyan/g16/l716.exe)
 Dipole        =-8.08827746D-01-7.54523031D-01-2.34617621D+00
 ***** Axes restored to original set *****
 -------------------------------------------------------------------
 Center     Atomic                   Forces (Hartrees/Bohr)
 Number     Number              X              Y              Z
 -------------------------------------------------------------------
      1        6           0.000053434   -0.000000975    0.000045116
      2        6           0.000043210    0.000011898    0.000039230
      3        6           0.000039429    0.000018833    0.000027790
      4        6           0.000025899    0.000037982    0.000024322
      5        6           0.000084607    0.000033331    0.000054841
      6        6           0.000055839    0.000019838    0.000043023
      7        1           0.000033117    0.000016324    0.000035536
      8        1           0.000028755    0.000006490    0.000024728
      9        1           0.000035083    0.000017651    0.000032020
     10        1           0.000033940    0.000004190    0.000040382
     11        1           0.000044978   -0.000000442    0.000045581
     12        1           0.000037615    0.000030127    0.000031738
     13        1           0.000022527    0.000048910   -0.000003814
     14        1           0.000066686   -0.000009044    0.000039927
     15        1           0.000033437    0.000007282    0.000040986
     16        1           0.000025580    0.000019210    0.000026434
     17        7           0.000036040    0.000021762    0.000016490
     18        6           0.000026907   -0.000007343    0.000011910
     19        6           0.000014689    0.000012215    0.000010166
     20        6           0.000015818   -0.000039830   -0.000033596
     21        1           0.000014858    0.000035250    0.000036595
     22        6           0.000029586   -0.000043579   -0.000043379
     23        1           0.000031333    0.000047843    0.000034420
     24        6           0.000016459   -0.000097387   -0.000072392
     25        1           0.000006384   -0.000038061   -0.000031564
     26        1           0.000020132   -0.000034286   -0.000034543
     27        7           0.000041007   -0.000092499   -0.000097565
     28        6           0.000034876   -0.000100122   -0.000078015
     29        1           0.000053286   -0.000100671   -0.000094502
     30        1           0.000010723   -0.000181366   -0.000056983
     31        6           0.000039368   -0.000078367   -0.000066905
     32        1           0.000054417   -0.000062109   -0.000070786
     33        1           0.000034036   -0.000083884   -0.000113669
     34        7           0.000147022    0.000019846   -0.000048992
     35       16           0.000069168    0.000062476   -0.000110386
     36        8           0.000185364   -0.000124215   -0.000054359
     37        8           0.000172082    0.000140855    0.000000003
     38        6          -0.000256746    0.000259143    0.000024435
     39        6          -0.000146102    0.000158308    0.000122731
     40        6          -0.000031488    0.000063987    0.000061050
     41        6          -0.000028764    0.000009884   -0.000088207
     42        6          -0.000149489    0.000078638   -0.000169371
     43        6          -0.000231664    0.000188505   -0.000130243
     44        1          -0.000142571    0.000186541    0.000183085
     45        1           0.000046542    0.000010760    0.000116666
     46        1           0.000032788   -0.000061962   -0.000122118
     47        1          -0.000168211    0.000033714   -0.000258674
     48        1          -0.000290786    0.000198561   -0.000156074
     49        8          -0.000892422    0.000208046    0.000069262
     50        1           0.000069195    0.000756206    0.000584386
     51        6           0.001138622   -0.000719723   -0.000066402
     52        8           0.000435954   -0.000371817   -0.000020182
     53        8           0.000139118   -0.000258503   -0.000030375
     54        1          -0.000108237   -0.000038266    0.000024707
     55        6           0.000258390   -0.000240474    0.000017140
     56        1          -0.000321390   -0.000446713   -0.000094897
     57        1           0.000390474    0.000303096    0.000230766
     58        6          -0.000518107    0.000247514    0.000149712
     59        1          -0.000510961    0.000612541   -0.000022335
     60        1          -0.000311573    0.000046593    0.000141342
     61        6          -0.000031931    0.000015729   -0.000041528
     62        1          -0.000116976    0.000104895   -0.000090425
     63        1          -0.000076113   -0.000073305   -0.000022105
     64        1           0.000024029   -0.000005772   -0.000047369
     65        6           0.000047650   -0.000130960    0.000037340
     66        1           0.000069308   -0.000016627   -0.000048816
     67        1          -0.000042771   -0.000202358    0.000169534
     68        6          -0.000039005   -0.000048690    0.000035564
     69        1          -0.000120091   -0.000021280    0.000039104
     70        1          -0.000080590   -0.000077458    0.000054163
     71        1          -0.000008459    0.000027846   -0.000006657
     72        6           0.000026687   -0.000051377   -0.000038505
     73        1           0.000005117   -0.000036893   -0.000021549
     74        1           0.000058794   -0.000047907   -0.000022945
     75        6           0.000035782   -0.000073727   -0.000061899
     76        1           0.000092292   -0.000023242   -0.000080856
     77        1           0.000036020   -0.000081582   -0.000069241
 -------------------------------------------------------------------
 Cartesian Forces:  Max     0.001138622 RMS     0.000176865
 Z-matrix is all fixed cartesians, so copy forces.
 Leave Link  716 at Thu Feb  7 18:48:19 2019, MaxMem=   104857600 cpu:               1.6 elap:               0.1
 (Enter /home/xinyan/g16/l103.exe)

 GradGradGradGradGradGradGradGradGradGradGradGradGradGradGradGradGradGrad
 Berny optimization.
 Search for a local minimum.
 Step number   1 out of a maximum of    2
 All quantities printed in internal units (Hartrees-Bohrs-Radians)
 Second derivative matrix not updated -- first step.
 ITU=  0
     Eigenvalues ---   -0.00000  -0.00000   0.00000   0.00000   0.00000
     Eigenvalues ---    0.00000   0.00000   0.00000   0.00000   0.00000
     Eigenvalues ---    0.00000   0.00000   0.00013   0.00018   0.00038
     Eigenvalues ---    0.00087   0.00115   0.00137   0.00171   0.00207
     Eigenvalues ---    0.00215   0.00225   0.00229   0.00286   0.00410
     Eigenvalues ---    0.00458   0.00491   0.00586   0.00617   0.00619
     Eigenvalues ---    0.00640   0.00710   0.00825   0.00971   0.01149
     Eigenvalues ---    0.01398   0.01633   0.01663   0.01859   0.01901
     Eigenvalues ---    0.02033   0.02094   0.02193   0.02312   0.02367
     Eigenvalues ---    0.02457   0.02506   0.02841   0.03084   0.03277
     Eigenvalues ---    0.03401   0.03514   0.03539   0.03561   0.03835
     Eigenvalues ---    0.04173   0.04295   0.04402   0.04820   0.04850
     Eigenvalues ---    0.04925   0.04932   0.05018   0.05059   0.05109
     Eigenvalues ---    0.05136   0.05158   0.05270   0.05340   0.05484
     Eigenvalues ---    0.05629   0.05647   0.05666   0.05725   0.05737
     Eigenvalues ---    0.05812   0.05972   0.06122   0.06157   0.06373
     Eigenvalues ---    0.06422   0.06527   0.06588   0.06836   0.06972
     Eigenvalues ---    0.07045   0.07133   0.07203   0.07261   0.07329
     Eigenvalues ---    0.07367   0.07566   0.07794   0.07916   0.07992
     Eigenvalues ---    0.08065   0.08118   0.08574   0.09074   0.09659
     Eigenvalues ---    0.09727   0.09745   0.10180   0.10188   0.10577
     Eigenvalues ---    0.11260   0.11418   0.11705   0.12285   0.12320
     Eigenvalues ---    0.12435   0.12885   0.12914   0.12970   0.13318
     Eigenvalues ---    0.13697   0.13824   0.13956   0.14479   0.14607
     Eigenvalues ---    0.14957   0.15653   0.15994   0.16447   0.16638
     Eigenvalues ---    0.16947   0.17032   0.17223   0.17628   0.17808
     Eigenvalues ---    0.18216   0.19471   0.20223   0.20350   0.20945
     Eigenvalues ---    0.21476   0.22241   0.22521   0.23935   0.24712
     Eigenvalues ---    0.26365   0.27490   0.28388   0.29396   0.30124
     Eigenvalues ---    0.31302   0.31455   0.32338   0.32900   0.34697
     Eigenvalues ---    0.35300   0.36183   0.39419   0.40401   0.43181
     Eigenvalues ---    0.43715   0.44432   0.44676   0.47988   0.49387
     Eigenvalues ---    0.50229   0.52803   0.56415   0.56982   0.62330
     Eigenvalues ---    0.64771   0.65322   0.66768   0.68138   0.68744
     Eigenvalues ---    0.70492   0.75749   0.76047   0.77632   0.77909
     Eigenvalues ---    0.81324   0.83126   0.83186   0.85824   0.85894
     Eigenvalues ---    0.87430   0.88764   0.88858   0.90257   0.91319
     Eigenvalues ---    0.93904   0.94866   0.94932   0.95862   0.96408
     Eigenvalues ---    0.97502   0.97897   0.99275   1.00263   1.00415
     Eigenvalues ---    1.00849   1.03785   1.04185   1.04754   1.06175
     Eigenvalues ---    1.06345   1.06683   1.07724   1.08730   1.08895
     Eigenvalues ---    1.12350   1.15144   1.15583   1.17428   1.21271
     Eigenvalues ---    1.23357   1.23747   1.27256   1.27835   1.36938
     Eigenvalues ---    1.47635   1.53446   1.58375   1.58542   1.59803
     Eigenvalues ---    1.66980   1.73837   1.83421   1.93833   2.32621
 Eigenvalue     1 is  -5.55D-16 should be greater than     0.000000 Eigenvector:
                          X45       X46       X40       X41       X44
   1                    0.16744   0.16744   0.16744   0.16744   0.16744
                          X39       X42       X47       X38       X43
   1                    0.16744   0.16744   0.16744   0.16744   0.16744
 Eigenvalue     2 is  -3.33D-16 should be greater than     0.000000 Eigenvector:
                          X54       X53       X51       X57       X52
   1                    0.18204   0.18204   0.18204   0.18204   0.18204
                          X56       X55       X65       X66       X71
   1                    0.18204   0.18204   0.18204   0.18204   0.18204
 Eigenvalue     3 is   6.66D-16 Eigenvector:
                          Y46       Y45       Y41       Y47       Y40
   1                    0.21274   0.21274   0.21274   0.21274   0.21274
                          Y42       Y39       Y43       Y44       Y38
   1                    0.21274   0.21274   0.21274   0.21274   0.21274
 Eigenvalue     4 is   4.43D-09 Eigenvector:
                          Z44       Z49       Z54       Z60       Z53
   1                    0.20272   0.19580  -0.19571   0.17992  -0.17979
                          Z52       Z51       Z39       Z45       Z58
   1                   -0.17942  -0.17243   0.17016   0.16974   0.16705
 Eigenvalue     5 is   6.90D-09 Eigenvector:
                          Z54       X54       Z69       Z53       X53
   1                    0.33871   0.27491  -0.25335   0.24307   0.23828
                          Z52       Z70       Z71       X69       Z68
   1                    0.23115  -0.22921  -0.22489  -0.22286  -0.19710
 Eigenvalue     6 is   1.16D-08 Eigenvector:
                          X45       X46       Z47       X40       X41
   1                    0.29238   0.26153  -0.24784   0.20645   0.18955
                          Z44       X59       Y60       Y49       Z49
   1                    0.18440  -0.17221   0.17183   0.16973   0.16474
 Eigenvalue     7 is   1.73D-08 Eigenvector:
                          X54       Y54       X53       Z54       Y69
   1                    0.31580  -0.26358   0.24638  -0.24553   0.23473
                          X70       X69       Y71       X52       Y53
   1                   -0.23372  -0.22838   0.22189   0.20519  -0.20244
 Eigenvalue     8 is   6.87D-08 Eigenvector:
                          Y47       X49       Y60       Y44       Y42
   1                    0.36974  -0.33468  -0.28908  -0.27914   0.22593
                          Y49       Y46       X47       Y48       X44
   1                   -0.22389   0.21616   0.21560   0.19374  -0.17175
 Eigenvalue     9 is   1.36D-07 Eigenvector:
                          Z69       Z70       Z68       Y45       Z71
   1                    0.17331   0.17307   0.15971  -0.15740   0.15642
                          Z77       Z67       Y32       Y77       Z65
   1                   -0.13461   0.13294  -0.13245  -0.13201   0.12915
 Eigenvalue    10 is   1.99D-07 Eigenvector:
                          Y45       Y59       Y48       X59       X45
   1                    0.29374  -0.27157  -0.25768  -0.21164   0.20439
                          X48       X60       Y40       Y44       Y46
   1                   -0.19313  -0.19008   0.17185   0.15378   0.15074
 Eigenvalue    11 is   2.73D-07 Eigenvector:
                          Y64       Y45       Y46       Y62       Y61
   1                    0.22395   0.20836   0.18978   0.18319   0.17843
                          Y59       Y63       Y9        Y7        Y16
   1                   -0.16295   0.16180  -0.15485  -0.14713  -0.14282
 Eigenvalue    12 is   3.21D-06 Eigenvector:
                          X66       X52       X56       Z67       Z71
   1                    0.33412   0.32987  -0.32666  -0.30187   0.28401
                          Z57       X70       Y67       Y52       Y57
   1                    0.25390  -0.25270  -0.19831  -0.19148   0.16752
 Quadratic step=1.928D+01 exceeds max=3.000D-01 adjusted using Lamda=-7.029D-03.
 Angle between NR and scaled steps=  23.17 degrees.
 Angle between quadratic step and forces=  28.45 degrees.
 Linear search not attempted -- first point.
 B after Tr=     0.001208   -0.000225   -0.000081
         Rot=    1.000000   -0.000047   -0.000066    0.000006 Ang=  -0.01 deg.
 Variable       Old X    -DE/DX   Delta X   Delta X   Delta X     New X
                                 (Linear)    (Quad)   (Total)
    X1       -9.36099   0.00005   0.00000   0.00357   0.00469  -9.35629
    Y1        0.49592  -0.00000   0.00000   0.00198   0.00193   0.49785
    Z1       -0.67282   0.00005   0.00000   0.00502   0.00622  -0.66660
    X2       -9.66946   0.00004   0.00000   0.00519   0.00608  -9.66339
    Y2       -1.90106   0.00001   0.00000   0.00188   0.00198  -1.89909
    Z2       -2.26487   0.00004   0.00000   0.00504   0.00605  -2.25883
    X3       -7.12642   0.00004   0.00000   0.00591   0.00665  -7.11977
    Y3       -2.72850   0.00002   0.00000   0.00363   0.00381  -2.72469
    Z3       -3.38085   0.00003   0.00000   0.00555   0.00615  -3.37470
    X4       -5.26064   0.00003   0.00000   0.00731   0.00832  -5.25232
    Y4       -3.18993   0.00004   0.00000   0.00758   0.00753  -3.18240
    Z4       -1.23210   0.00002   0.00000   0.00550   0.00581  -1.22629
    X5       -4.88872   0.00008   0.00000   0.00599   0.00724  -4.88148
    Y5       -0.76337   0.00003   0.00000   0.01037   0.01017  -0.75320
    Z5        0.36205   0.00005   0.00000   0.00319   0.00368   0.36573
    X6       -7.42642   0.00006   0.00000   0.00452   0.00592  -7.42050
    Y6        0.11837   0.00002   0.00000   0.00400   0.00372   0.12210
    Z6        1.44643   0.00004   0.00000   0.00439   0.00529   1.45173
    X7       -7.32696   0.00003   0.00000   0.00710   0.00767  -7.31929
    Y7       -4.43672   0.00002   0.00000   0.00244   0.00272  -4.43400
    Z7       -4.53256   0.00004   0.00000   0.00705   0.00752  -4.52505
    X8      -10.43046   0.00003   0.00000   0.00572   0.00675 -10.42371
    Y8       -3.42896   0.00001   0.00000   0.00136   0.00136  -3.42761
    Z8       -1.08536   0.00002   0.00000   0.00472   0.00569  -1.07967
    X9      -11.02557   0.00004   0.00000   0.00530   0.00600 -11.01957
    Y9       -1.58618   0.00002   0.00000   0.00118   0.00144  -1.58474
    Z9       -3.79466   0.00003   0.00000   0.00475   0.00597  -3.78869
   X10       -8.72288   0.00003   0.00000   0.00204   0.00302  -8.71986
   Y10        2.04599   0.00000   0.00000   0.00245   0.00250   2.04849
   Z10       -1.89789   0.00004   0.00000   0.00485   0.00611  -1.89178
   X11      -11.18472   0.00004   0.00000   0.00335   0.00458 -11.18014
   Y11        1.06144  -0.00000   0.00000   0.00039   0.00028   1.06172
   Z11        0.12366   0.00005   0.00000   0.00553   0.00702   0.13068
   X12       -5.99111   0.00004   0.00000   0.00774   0.00889  -5.98222
   Y12       -4.68408   0.00003   0.00000   0.00866   0.00850  -4.67558
   Z12       -0.00191   0.00003   0.00000   0.00716   0.00742   0.00551
   X13       -4.23191   0.00002   0.00000   0.00066   0.00175  -4.23015
   Y13        0.70545   0.00005   0.00000   0.01142   0.01133   0.71678
   Z13       -0.94828  -0.00000   0.00000   0.00171   0.00226  -0.94603
   X14       -8.11726   0.00007   0.00000   0.00781   0.00937  -8.10789
   Y14       -1.27723  -0.00001   0.00000   0.00157   0.00118  -1.27605
   Z14        2.81135   0.00004   0.00000   0.00365   0.00452   2.81586
   X15       -7.10286   0.00003   0.00000   0.00146   0.00301  -7.09984
   Y15        1.89893   0.00001   0.00000   0.00386   0.00348   1.90241
   Z15        2.45449   0.00004   0.00000   0.00553   0.00656   2.46105
   X16       -6.43903   0.00003   0.00000   0.00399   0.00458  -6.43446
   Y16       -1.20593   0.00002   0.00000   0.00312   0.00340  -1.20252
   Z16       -4.61261   0.00003   0.00000   0.00387   0.00452  -4.60810
   X17       -2.73929   0.00004   0.00000   0.00548   0.00637  -2.73292
   Y17       -4.05996   0.00002   0.00000   0.00457   0.00457  -4.05539
   Z17       -2.07237   0.00002   0.00000   0.00392   0.00382  -2.06855
   X18       -1.45768   0.00003   0.00000   0.00471   0.00538  -1.45230
   Y18       -2.78536  -0.00001   0.00000   0.00130   0.00146  -2.78390
   Z18       -3.89310   0.00001   0.00000   0.00128   0.00113  -3.89197
   X19       -1.42049   0.00001   0.00000   0.00463   0.00571  -1.41478
   Y19       -5.60030   0.00001   0.00000   0.00217   0.00201  -5.59829
   Z19       -0.49998   0.00001   0.00000   0.00213   0.00171  -0.49827
   X20        1.09657   0.00002   0.00000   0.00379   0.00442   1.10099
   Y20       -2.96050  -0.00004   0.00000  -0.00434  -0.00419  -2.96469
   Z20       -4.16027  -0.00003   0.00000  -0.00327  -0.00377  -4.16404
   X21       -2.57579   0.00001   0.00000   0.00484   0.00536  -2.57043
   Y21       -1.56696   0.00004   0.00000   0.00320   0.00349  -1.56348
   Z21       -5.09655   0.00004   0.00000   0.00304   0.00315  -5.09340
   X22        1.13735   0.00003   0.00000   0.00377   0.00483   1.14218
   Y22       -5.85348  -0.00004   0.00000  -0.00383  -0.00401  -5.85749
   Z22       -0.63232  -0.00004   0.00000  -0.00273  -0.00350  -0.63583
   X23       -2.51953   0.00003   0.00000   0.00494   0.00619  -2.51334
   Y23       -6.54852   0.00005   0.00000   0.00503   0.00474  -6.54378
   Z23        0.94687   0.00003   0.00000   0.00425   0.00388   0.95075
   X24        2.54123   0.00002   0.00000   0.00388   0.00473   2.54595
   Y24       -4.37568  -0.00010   0.00000  -0.00711  -0.00714  -4.38282
   Z24       -2.37983  -0.00007   0.00000  -0.00547  -0.00630  -2.38612
   X25        2.00717   0.00001   0.00000   0.00329   0.00374   2.01091
   Y25       -1.89213  -0.00004   0.00000  -0.00630  -0.00602  -1.89815
   Z25       -5.64675  -0.00003   0.00000  -0.00495  -0.00547  -5.65222
   X26        2.05774   0.00002   0.00000   0.00362   0.00485   2.06259
   Y26       -7.02753  -0.00003   0.00000  -0.00541  -0.00573  -7.03326
   Z26        0.76284  -0.00003   0.00000  -0.00399  -0.00500   0.75785
   X27        5.05621   0.00004   0.00000   0.00405   0.00490   5.06111
   Y27       -4.31732  -0.00009   0.00000  -0.01058  -0.01064  -4.32796
   Z27       -2.34097  -0.00010   0.00000  -0.00819  -0.00933  -2.35031
   X28        6.45820   0.00003   0.00000   0.00413   0.00525   6.46345
   Y28       -5.31637  -0.00010   0.00000  -0.01242  -0.01271  -5.32907
   Z28       -0.15855  -0.00008   0.00000  -0.00898  -0.01040  -0.16895
   X29        6.20614   0.00005   0.00000   0.00601   0.00713   6.21327
   Y29       -7.36156  -0.00010   0.00000  -0.01291  -0.01321  -7.37477
   Z29       -0.00093  -0.00009   0.00000  -0.01203  -0.01362  -0.01454
   X30        5.75168   0.00001   0.00000   0.00199   0.00335   5.75503
   Y30       -4.37534  -0.00018   0.00000  -0.01619  -0.01663  -4.39197
   Z30        1.55288  -0.00006   0.00000  -0.00787  -0.00911   1.54377
   X31        6.50334   0.00004   0.00000   0.00495   0.00565   6.50899
   Y31       -2.32351  -0.00008   0.00000  -0.01140  -0.01136  -2.33487
   Z31       -3.63833  -0.00007   0.00000  -0.00867  -0.00982  -3.64815
   X32        6.99301   0.00005   0.00000   0.00589   0.00633   6.99934
   Y32       -2.94140  -0.00006   0.00000  -0.01229  -0.01207  -2.95347
   Z32       -5.55534  -0.00007   0.00000  -0.00815  -0.00943  -5.56477
   X33        5.37935   0.00003   0.00000   0.00505   0.00576   5.38511
   Y33       -0.59336  -0.00008   0.00000  -0.01140  -0.01134  -0.60470
   Z33       -3.70388  -0.00011   0.00000  -0.01058  -0.01143  -3.71531
   X34       -2.82146   0.00015   0.00000   0.00660   0.00808  -2.81337
   Y34       -1.04043   0.00002   0.00000   0.02048   0.02009  -1.02034
   Z34        2.14620  -0.00005   0.00000   0.00458   0.00477   2.15097
   X35       -2.90547   0.00007   0.00000   0.01467   0.01646  -2.88901
   Y35       -2.74456   0.00006   0.00000   0.00945   0.00882  -2.73574
   Z35        4.70035  -0.00011   0.00000  -0.00296  -0.00292   4.69744
   X36       -5.17203   0.00019   0.00000   0.02767   0.02943  -5.14260
   Y36       -4.33656  -0.00012   0.00000  -0.00863  -0.00922  -4.34578
   Z36        4.60662  -0.00005   0.00000  -0.01208  -0.01190   4.59473
   X37       -0.45816   0.00017   0.00000   0.02425   0.02607  -0.43210
   Y37       -4.01308   0.00014   0.00000   0.02831   0.02762  -3.98545
   Z37        5.00027   0.00000   0.00000  -0.00129  -0.00169   4.99858
   X38       -1.38553  -0.00026   0.00000  -0.04114  -0.03985  -1.42538
   Y38        4.72539   0.00026   0.00000   0.02986   0.02963   4.75502
   Z38        0.18756   0.00002   0.00000   0.00204   0.00259   0.19014
   X39       -0.37199  -0.00015   0.00000  -0.02410  -0.02310  -0.39509
   Y39        3.51419   0.00016   0.00000   0.02134   0.02130   3.53549
   Z39       -1.93895   0.00012   0.00000   0.01500   0.01530  -1.92365
   X40       -1.63151  -0.00003   0.00000  -0.00785  -0.00715  -1.63867
   Y40        3.62818   0.00006   0.00000   0.00918   0.00938   3.63756
   Z40       -4.25011   0.00006   0.00000   0.00570   0.00617  -4.24394
   X41       -3.94416  -0.00003   0.00000  -0.00831  -0.00763  -3.95179
   Y41        4.87820   0.00001   0.00000   0.00463   0.00487   4.88307
   Z41       -4.46487  -0.00009   0.00000  -0.01582  -0.01492  -4.47980
   X42       -4.98202  -0.00015   0.00000  -0.02421  -0.02324  -5.00526
   Y42        6.04450   0.00008   0.00000   0.01413   0.01419   6.05868
   Z42       -2.34438  -0.00017   0.00000  -0.02874  -0.02760  -2.37197
   X43       -3.69816  -0.00023   0.00000  -0.03958  -0.03831  -3.73647
   Y43        5.97244   0.00019   0.00000   0.02762   0.02744   5.99989
   Z43       -0.04479  -0.00013   0.00000  -0.01997  -0.01900  -0.06379
   X44        1.36215  -0.00014   0.00000  -0.02444  -0.02343   1.33872
   Y44        2.42355   0.00019   0.00000   0.02410   0.02402   2.44757
   Z44       -1.72301   0.00018   0.00000   0.03201   0.03198  -1.69104
   X45       -0.80268   0.00005   0.00000   0.00484   0.00531  -0.79737
   Y45        2.73143   0.00001   0.00000   0.00237   0.00271   2.73414
   Z45       -5.90555   0.00012   0.00000   0.01572   0.01600  -5.88955
   X46       -4.92387   0.00003   0.00000   0.00338   0.00382  -4.92005
   Y46        4.95390  -0.00006   0.00000  -0.00640  -0.00598   4.94791
   Z46       -6.26722  -0.00012   0.00000  -0.02252  -0.02150  -6.28872
   X47       -6.78689  -0.00017   0.00000  -0.02509  -0.02413  -6.81103
   Y47        7.01353   0.00003   0.00000   0.01008   0.01017   7.02370
   Z47       -2.47828  -0.00026   0.00000  -0.04496  -0.04349  -2.52177
   X48       -4.51151  -0.00029   0.00000  -0.05141  -0.04991  -4.56143
   Y48        6.88268   0.00020   0.00000   0.03349   0.03317   6.91586
   Z48        1.60978  -0.00016   0.00000  -0.02905  -0.02789   1.58190
   X49        0.75198  -0.00089   0.00000  -0.10576  -0.10408   0.64790
   Y49        2.18532   0.00021   0.00000   0.02921   0.02866   2.21397
   Z49        3.36908   0.00007   0.00000   0.03926   0.03930   3.40838
   X50       -1.28730   0.00007   0.00000  -0.00760  -0.00610  -1.29340
   Y50        0.28161   0.00076   0.00000   0.03773   0.03731   0.31892
   Z50        2.23762   0.00058   0.00000   0.01943   0.01955   2.25717
   X51        3.86028   0.00114   0.00000   0.05948   0.06103   3.92131
   Y51        0.81052  -0.00072   0.00000  -0.05307  -0.05357   0.75695
   Z51        2.54557  -0.00007   0.00000  -0.00876  -0.00928   2.53629
   X52        3.59265   0.00044   0.00000   0.09010   0.09136   3.68402
   Y52       -0.16008  -0.00037   0.00000  -0.06650  -0.06680  -0.22688
   Z52        0.40892  -0.00002   0.00000  -0.00643  -0.00702   0.40190
   X53        3.96935   0.00014   0.00000   0.02646   0.02826   3.99762
   Y53       -0.73393  -0.00026   0.00000  -0.03405  -0.03476  -0.76869
   Z53        4.63075  -0.00003   0.00000   0.00668   0.00600   4.63675
   X54        2.67615  -0.00011   0.00000   0.02136   0.02312   2.69927
   Y54       -2.03257  -0.00004   0.00000  -0.02821  -0.02888  -2.06145
   Z54        4.40629   0.00002   0.00000   0.00118   0.00055   4.40685
   X55        5.62810   0.00026   0.00000   0.02329   0.02492   5.65301
   Y55        3.05272  -0.00024   0.00000  -0.02666  -0.02723   3.02550
   Z55        2.93051   0.00002   0.00000   0.00287   0.00233   2.93284
   X56        4.95367  -0.00032   0.00000  -0.01133  -0.00949   4.94418
   Y56        4.22819  -0.00045   0.00000  -0.03877  -0.03947   4.18871
   Z56        4.49454  -0.00009   0.00000  -0.00322  -0.00356   4.49099
   X57        7.43377   0.00039   0.00000   0.03393   0.03564   7.46940
   Y57        2.23817   0.00030   0.00000   0.00752   0.00687   2.24504
   Z57        3.55692   0.00023   0.00000   0.01720   0.01635   3.57327
   X58       -0.03730  -0.00052   0.00000  -0.06523  -0.06360  -0.10091
   Y58        4.59398   0.00025   0.00000   0.03557   0.03509   4.62907
   Z58        2.72801   0.00015   0.00000   0.01416   0.01453   2.74254
   X59       -1.35221  -0.00051   0.00000  -0.06817  -0.06635  -1.41856
   Y59        5.32712   0.00061   0.00000   0.06685   0.06625   5.39337
   Z59        4.17769  -0.00002   0.00000  -0.00402  -0.00341   4.17429
   X60        1.55870  -0.00031   0.00000  -0.04619  -0.04456   1.51415
   Y60        5.94151   0.00005   0.00000   0.01298   0.01248   5.95399
   Z60        2.70405   0.00014   0.00000   0.01667   0.01694   2.72099
   X61       -3.10282  -0.00003   0.00000  -0.00746  -0.00531  -3.10813
   Y61       -0.52128   0.00002   0.00000   0.00267   0.00181  -0.51947
   Z61        7.21756  -0.00004   0.00000   0.00052   0.00080   7.21836
   X62       -1.49046  -0.00012   0.00000  -0.01795  -0.01582  -1.50628
   Y62        0.74860   0.00010   0.00000   0.01648   0.01562   0.76422
   Z62        6.94811  -0.00009   0.00000   0.00260   0.00279   6.95089
   X63       -4.89458  -0.00008   0.00000  -0.01565  -0.01351  -4.90809
   Y63        0.48749  -0.00007   0.00000  -0.01201  -0.01284   0.47465
   Z63        7.06293  -0.00002   0.00000   0.00007   0.00068   7.06360
   X64       -2.97587   0.00002   0.00000  -0.00004   0.00233  -2.97353
   Y64       -1.54844  -0.00001   0.00000   0.00076  -0.00028  -1.54872
   Z64        9.00061  -0.00005   0.00000  -0.00121  -0.00105   8.99957
   X65        6.07188   0.00005   0.00000   0.00849   0.00982   6.08170
   Y65        4.60611  -0.00013   0.00000  -0.01820  -0.01854   4.58757
   Z65        0.54222   0.00004   0.00000   0.00558   0.00513   0.54735
   X66        6.77042   0.00007   0.00000   0.01617   0.01729   6.78771
   Y66        3.35124  -0.00002   0.00000  -0.00881  -0.00903   3.34221
   Z66       -0.95089  -0.00005   0.00000   0.00131   0.00065  -0.95024
   X67        4.28286  -0.00004   0.00000   0.00076   0.00201   4.28486
   Y67        5.36866  -0.00020   0.00000  -0.03142  -0.03167   5.33698
   Z67       -0.16974   0.00017   0.00000   0.01064   0.01050  -0.15923
   X68        7.93946  -0.00004   0.00000  -0.00768  -0.00626   7.93319
   Y68        6.75963  -0.00005   0.00000  -0.00448  -0.00489   6.75474
   Z68        0.98755   0.00004   0.00000   0.00634   0.00585   0.99340
   X69        8.29337  -0.00012   0.00000  -0.01854  -0.01733   8.27603
   Y69        7.83463  -0.00002   0.00000   0.00054   0.00029   7.83492
   Z69       -0.74306   0.00004   0.00000   0.00723   0.00680  -0.73626
   X70        7.22370  -0.00008   0.00000  -0.01500  -0.01338   7.21032
   Y70        8.07644  -0.00008   0.00000  -0.01193  -0.01247   8.06398
   Z70        2.41577   0.00005   0.00000   0.00950   0.00923   2.42500
   X71        9.75533  -0.00001   0.00000  -0.00110   0.00040   9.75574
   Y71        6.03376   0.00003   0.00000   0.00783   0.00734   6.04110
   Z71        1.66840  -0.00001   0.00000   0.00186   0.00107   1.66947
   X72        9.17899   0.00003   0.00000   0.00402   0.00508   9.18407
   Y72       -4.55042  -0.00005   0.00000  -0.00905  -0.00932  -4.55974
   Z72       -0.71519  -0.00004   0.00000  -0.00543  -0.00714  -0.72233
   X73       10.32184   0.00001   0.00000   0.00135   0.00264  10.32448
   Y73       -4.47627  -0.00004   0.00000  -0.00695  -0.00738  -4.48365
   Z73        1.00052  -0.00002   0.00000  -0.00372  -0.00558   0.99494
   X74       10.04832   0.00006   0.00000   0.00749   0.00836  10.05668
   Y74       -5.89390  -0.00005   0.00000  -0.00881  -0.00896  -5.90286
   Z74       -2.02868  -0.00002   0.00000  -0.00332  -0.00527  -2.03395
   X75        8.83568   0.00004   0.00000   0.00432   0.00525   8.84093
   Y75       -1.96717  -0.00007   0.00000  -0.01014  -0.01028  -1.97744
   Z75       -1.96539  -0.00006   0.00000  -0.00793  -0.00936  -1.97475
   X76        8.37313   0.00009   0.00000   0.00476   0.00589   8.37902
   Y76       -0.56546  -0.00002   0.00000  -0.00822  -0.00850  -0.57396
   Z76       -0.51881  -0.00008   0.00000  -0.00961  -0.01085  -0.52965
   X77       10.48439   0.00004   0.00000   0.00473   0.00552  10.48991
   Y77       -1.33443  -0.00008   0.00000  -0.01155  -0.01161  -1.34604
   Z77       -3.03295  -0.00007   0.00000  -0.00816  -0.00974  -3.04270
         Item               Value     Threshold  Converged?
 Maximum Force            0.001139     0.000450     NO 
 RMS     Force            0.000177     0.000300     YES
 Maximum Displacement     0.104079     0.001800     NO 
 RMS     Displacement     0.019754     0.001200     NO 
 Predicted change in Energy=-6.763635D-04
 GradGradGradGradGradGradGradGradGradGradGradGradGradGradGradGradGradGrad

 Leave Link  103 at Thu Feb  7 18:48:20 2019, MaxMem=   104857600 cpu:              23.3 elap:               1.0
 (Enter /home/xinyan/g16/l9999.exe)
 1\1\GINC-TSE4\Force\RM062X\6-31G(d)\C27H41N3O5S1\STEVETSE\07-Feb-2019\
 0\\#p M062X/6-31G* em=gd3 force int=ultrafine\\Title\\0,1\C,-4.95362,0
 .26243,-0.35604\C,-5.11686,-1.006,-1.19852\C,-3.77114,-1.44386,-1.7890
 7\C,-2.78381,-1.68804,-0.652\C,-2.587,-0.40396,0.19159\C,-3.92989,0.06
 264,0.76542\H,-3.87726,-2.34781,-2.39853\H,-5.51956,-1.81453,-0.57435\
 H,-5.83448,-0.83937,-2.00805\H,-4.61595,1.08269,-1.00432\H,-5.9187,0.5
 6169,0.06544\H,-3.17036,-2.47871,-0.00101\H,-2.23943,0.37331,-0.50181\
 H,-4.29547,-0.67588,1.4877\H,-3.75867,1.00487,1.29886\H,-3.40739,-0.63
 815,-2.44089\N,-1.44957,-2.14844,-1.09665\C,-0.77137,-1.47395,-2.06014
 \C,-0.75169,-2.96355,-0.26458\C,0.58028,-1.56663,-2.20152\H,-1.36305,-
 0.8292,-2.69698\C,0.60186,-3.09753,-0.33461\H,-1.33328,-3.46533,0.5010
 6\C,1.34476,-2.31551,-1.25935\H,1.06215,-1.00127,-2.98813\H,1.08891,-3
 .71881,0.40368\N,2.67563,-2.28463,-1.23879\C,3.41753,-2.8133,-0.0839\H
 ,3.28415,-3.89557,-0.00049\H,3.04366,-2.31533,0.82175\C,3.44142,-1.229
 55,-1.92532\H,3.70054,-1.55652,-2.93976\H,2.84663,-0.31399,-1.96001\N,
 -1.49305,-0.55057,1.13572\S,-1.53751,-1.45236,2.48732\O,-2.73692,-2.29
 481,2.43772\O,-0.24245,-2.12363,2.64603\C,-0.73319,2.50057,0.09925\C,-
 0.19685,1.85963,-1.02605\C,-0.86336,1.91995,-2.24906\C,-2.08716,2.5814
 3,-2.36271\C,-2.63637,3.19861,-1.24059\C,-1.95698,3.16048,-0.0237\H,0.
 72082,1.28249,-0.91178\H,-0.42476,1.44541,-3.12508\H,-2.6056,2.62149,-
 3.31647\H,-3.59147,3.7114,-1.31145\H,-2.38739,3.64216,0.85186\O,0.3979
 3,1.15642,1.78284\H,-0.68121,0.14902,1.1841\C,2.04277,0.42891,1.34706\
 O,1.90115,-0.08471,0.21639\O,2.10049,-0.38838,2.45049\H,1.41616,-1.075
 59,2.33171\C,2.97826,1.61543,1.55076\H,2.62137,2.23746,2.37841\H,3.933
 78,1.18439,1.88224\C,-0.01974,2.43103,1.4436\H,-0.71556,2.81899,2.2107
 4\H,0.82483,3.14411,1.43092\C,-1.64194,-0.27585,3.81937\H,-0.78872,0.3
 9614,3.67678\H,-2.5901,0.25797,3.73754\H,-1.57476,-0.8194,4.76292\C,3.
 2131,2.43745,0.28693\H,3.58275,1.7734,-0.50319\H,2.26639,2.84097,-0.08
 982\C,4.20138,3.57704,0.52259\H,4.38866,4.14591,-0.39321\H,3.82262,4.2
 7387,1.27837\H,5.1623,3.19293,0.88288\C,4.85731,-2.40798,-0.37846\H,5.
 46208,-2.36874,0.52945\H,5.31734,-3.11892,-1.07353\C,4.67564,-1.04098,
 -1.04004\H,4.43087,-0.29923,-0.27454\H,5.5481,-0.70615,-1.60497\\Versi
 on=ES64L-G16RevA.03\State=1-A\HF=-1991.3557327\RMSD=4.925e-09\RMSF=1.7
 69e-04\Dipole=-0.8143251,-0.7446227,-2.3474373\Quadrupole=8.4360059,-6
 .3194558,-2.1165501,-9.5483815,-2.5373307,7.8359149\PG=C01 [X(C27H41N3
 O5S1)]\\@


 PENOTUS DIED A HUNDRED YEARS OLD WANTING BUT TWO...
 AND HE USED TO SAY BEFORE HE DIED, HAVING SPENT HIS
 WHOLE LIFE IN VAINLY SEARCHING AFTER THE PHILOSOPHER'S
 STONE, THAT IF HE HAD A MORTAL ENEMY HE DID NOT DARE
 TO ENCOUNTER OPENLY, HE WOULD ADVISE HIM ABOVE ALL
 THINGS TO GIVE HIMSELF UP TO THE STUDY AND PRACTICE
 OF ALCHEMY.  --  NICOLAS LEMERY, M.D.
 "A COURSE OF CHYMISTRY", WALTER KETTILBY, LONDON, 1686
 Job cpu time:       0 days  1 hours 22 minutes 39.9 seconds.
 Elapsed time:       0 days  0 hours  3 minutes 27.8 seconds.
 File lengths (MBytes):  RWF=    216 Int=      0 D2E=      0 Chk=     25 Scr=      1
 Normal termination of Gaussian 16 at Thu Feb  7 18:48:20 2019.
