 Entering Gaussian System, Link 0=g16
 Input=C27N3H41SO5-311.gjf
 Output=C27N3H41SO5-311.log
 Initial command:
 /home/xinyan/g16/l1.exe "/local/home/tmp/Gau-26100.inp" -scrdir="/local/home/tmp/"
 Entering Link 1 = /home/xinyan/g16/l1.exe PID=     26101.
  
 Copyright (c) 1988,1990,1992,1993,1995,1998,2003,2009,2016,
            Gaussian, Inc.  All Rights Reserved.
  
 This is part of the Gaussian(R) 16 program.  It is based on
 the Gaussian(R) 09 system (copyright 2009, Gaussian, Inc.),
 the Gaussian(R) 03 system (copyright 2003, Gaussian, Inc.),
 the Gaussian(R) 98 system (copyright 1998, Gaussian, Inc.),
 the Gaussian(R) 94 system (copyright 1995, Gaussian, Inc.),
 the Gaussian 92(TM) system (copyright 1992, Gaussian, Inc.),
 the Gaussian 90(TM) system (copyright 1990, Gaussian, Inc.),
 the Gaussian 88(TM) system (copyright 1988, Gaussian, Inc.),
 the Gaussian 86(TM) system (copyright 1986, Carnegie Mellon
 University), and the Gaussian 82(TM) system (copyright 1983,
 Carnegie Mellon University). Gaussian is a federally registered
 trademark of Gaussian, Inc.
  
 This software contains proprietary and confidential information,
 including trade secrets, belonging to Gaussian, Inc.
  
 This software is provided under written license and may be
 used, copied, transmitted, or stored only in accord with that
 written license.
  
 The following legend is applicable only to US Government
 contracts under FAR:
  
                    RESTRICTED RIGHTS LEGEND
  
 Use, reproduction and disclosure by the US Government is
 subject to restrictions as set forth in subparagraphs (a)
 and (c) of the Commercial Computer Software - Restricted
 Rights clause in FAR 52.227-19.
  
 Gaussian, Inc.
 340 Quinnipiac St., Bldg. 40, Wallingford CT 06492
  
  
 ---------------------------------------------------------------
 Warning -- This program may not be used in any manner that
 competes with the business of Gaussian, Inc. or will provide
 assistance to any competitor of Gaussian, Inc.  The licensee
 of this program is prohibited from giving any competitor of
 Gaussian, Inc. access to this program.  By using this program,
 the user acknowledges that Gaussian, Inc. is engaged in the
 business of creating and licensing software in the field of
 computational chemistry and represents and warrants to the
 licensee that it is not a competitor of Gaussian, Inc. and that
 it will not use this program in any manner prohibited above.
 ---------------------------------------------------------------
  

 Cite this work as:
 Gaussian 16, Revision A.03,
 M. J. Frisch, G. W. Trucks, H. B. Schlegel, G. E. Scuseria, 
 M. A. Robb, J. R. Cheeseman, G. Scalmani, V. Barone, 
 G. A. Petersson, H. Nakatsuji, X. Li, M. Caricato, A. V. Marenich, 
 J. Bloino, B. G. Janesko, R. Gomperts, B. Mennucci, H. P. Hratchian, 
 J. V. Ortiz, A. F. Izmaylov, J. L. Sonnenberg, D. Williams-Young, 
 F. Ding, F. Lipparini, F. Egidi, J. Goings, B. Peng, A. Petrone, 
 T. Henderson, D. Ranasinghe, V. G. Zakrzewski, J. Gao, N. Rega, 
 G. Zheng, W. Liang, M. Hada, M. Ehara, K. Toyota, R. Fukuda, 
 J. Hasegawa, M. Ishida, T. Nakajima, Y. Honda, O. Kitao, H. Nakai, 
 T. Vreven, K. Throssell, J. A. Montgomery, Jr., J. E. Peralta, 
 F. Ogliaro, M. J. Bearpark, J. J. Heyd, E. N. Brothers, K. N. Kudin, 
 V. N. Staroverov, T. A. Keith, R. Kobayashi, J. Normand, 
 K. Raghavachari, A. P. Rendell, J. C. Burant, S. S. Iyengar, 
 J. Tomasi, M. Cossi, J. M. Millam, M. Klene, C. Adamo, R. Cammi, 
 J. W. Ochterski, R. L. Martin, K. Morokuma, O. Farkas, 
 J. B. Foresman, and D. J. Fox, Gaussian, Inc., Wallingford CT, 2016.
 
 ******************************************
 Gaussian 16:  ES64L-G16RevA.03 25-Dec-2016
                 8-Feb-2019 
 ******************************************
 %nproc=24
 Will use up to   24 processors via shared memory.
 ------------------------------------------
 #p M062X/6-31G* em=gd3 force int=ultrafine
 ------------------------------------------
 1/10=7,30=1,38=1/1,3;
 2/12=2,17=6,18=5,40=1/2;
 3/5=1,6=6,7=1,11=2,25=1,30=1,71=1,74=-55,75=-5,124=31/1,2,3;
 4//1;
 5/5=2,38=5/2;
 6/7=2,8=2,9=2,10=2,28=1/1;
 7/29=1/1,2,3,16;
 1/10=7,30=1/3;
 99//99;
 Leave Link    1 at Fri Feb  8 01:45:54 2019, MaxMem=           0 cpu:               2.5 elap:               0.1
 (Enter /home/xinyan/g16/l101.exe)
 -----
 Title
 -----
 Symbolic Z-matrix:
 Charge =  0 Multiplicity = 1
 C                    -4.94194   0.25419  -0.22933 
 C                    -5.08091  -0.99857  -1.09969 
 C                    -3.72964  -1.39293  -1.70781 
 C                    -2.73469  -1.63042  -0.57663 
 C                    -2.53364  -0.34365   0.27204 
 C                    -3.8897    0.06472   0.86734 
 H                    -3.82148  -2.28891  -2.33235 
 H                    -5.45796  -1.83046  -0.49033 
 H                    -5.80939  -0.83231  -1.90001 
 H                    -4.64171   1.0984   -0.86589 
 H                    -5.91036   0.51325   0.21191 
 H                    -3.10735  -2.42557   0.07428 
 H                    -2.26126   0.43793  -0.45234 
 H                    -4.21502  -0.70172   1.58226 
 H                    -3.74373   1.00031   1.42117 
 H                    -3.38986  -0.56756  -2.34879 
 N                    -1.40251  -2.08555  -1.03712 
 C                    -0.74186  -1.41667  -2.00962 
 C                    -0.7082   -2.92744  -0.23577 
 C                     0.60341  -1.55084  -2.20011 
 H                    -1.33658  -0.74477  -2.61501 
 C                     0.63903  -3.11101  -0.36292 
 H                    -1.27846  -3.40709   0.55248 
 C                     1.36877  -2.35004  -1.307 
 H                     1.07583  -0.99412  -2.99867 
 H                     1.13099  -3.75709   0.3506 
 N                     2.70798  -2.37015  -1.34045 
 C                     3.47428  -2.9884   -0.25208 
 H                     3.32014  -4.07148  -0.23614 
 H                     3.14061  -2.56489   0.70567 
 C                     3.48619  -1.32788  -2.02645 
 H                     3.70147  -1.63361  -3.05781 
 H                     2.92434  -0.39023  -2.02923 
 N                    -1.40848  -0.41687   1.18261 
 S                    -1.45051  -1.39952   2.41784 
 O                    -2.52713  -2.41294   2.3517 
 O                    -0.09343  -1.96881   2.64324 
 C                    -1.06742   2.71364   0.01866 
 C                    -0.34459   2.03351  -0.96597 
 C                    -0.82853   1.98007  -2.27185 
 C                    -2.04722   2.57071  -2.6041 
 C                    -2.77817   3.23361  -1.61956 
 C                    -2.28517   3.30566  -0.31918 
 H                     0.56812   1.50863  -0.68993 
 H                    -0.25122   1.46614  -3.03719 
 H                    -2.4249    2.51875  -3.62105 
 H                    -3.73291   3.69124  -1.86221 
 H                    -2.85995   3.81608   0.45094 
 O                     0.25887   1.69511   1.78174 
 H                    -0.26063   0.87751   1.53007 
 C                     2.38784   0.20427   1.42094 
 O                     2.07023  -0.20237   0.3157 
 O                     2.05679  -0.39719   2.54994 
 H                     1.32565  -1.0608    2.40616 
 C                     3.25602   1.41997   1.64575 
 H                     2.85065   1.95141   2.51116 
 H                     4.26013   1.07032   1.92701 
 C                    -0.55048   2.7836    1.44211 
 H                    -1.4114    2.8835    2.12552 
 H                     0.05953   3.68833   1.56583 
 C                    -1.75238  -0.39772   3.87091 
 H                    -0.98889   0.38389   3.88663 
 H                    -2.74924   0.03877   3.78287 
 H                    -1.68296  -1.02981   4.75728 
 C                     3.31767   2.32577   0.42314 
 H                     3.67543   1.75201  -0.4405 
 H                     2.29717   2.64212   0.18075 
 C                     4.20519   3.54526   0.65207 
 H                     4.23825   4.18575  -0.23388 
 H                     3.83216   4.14736   1.48713 
 H                     5.23235   3.24865   0.89103 
 C                     4.91595  -2.59753  -0.56533 
 H                     5.543    -2.60234   0.32841 
 H                     5.34604  -3.29458  -1.29206 
 C                     4.75821  -1.20606  -1.18322 
 H                     4.58215  -0.46902  -0.39396 
 H                     5.62143  -0.89156  -1.7733 
 
 ITRead=  0  0  0  0  0  0  0  0  0  0  0  0  0  0  0  0  0  0  0  0
 ITRead=  0  0  0  0  0  0  0  0  0  0  0  0  0  0  0  0  0  0  0  0
 ITRead=  0  0  0  0  0  0  0  0  0  0  0  0  0  0  0  0  0  0  0  0
 ITRead=  0  0  0  0  0  0  0  0  0  0  0  0  0  0  0  0  0
 MicOpt= -1 -1 -1 -1 -1 -1 -1 -1 -1 -1 -1 -1 -1 -1 -1 -1 -1 -1 -1 -1
 MicOpt= -1 -1 -1 -1 -1 -1 -1 -1 -1 -1 -1 -1 -1 -1 -1 -1 -1 -1 -1 -1
 MicOpt= -1 -1 -1 -1 -1 -1 -1 -1 -1 -1 -1 -1 -1 -1 -1 -1 -1 -1 -1 -1
 MicOpt= -1 -1 -1 -1 -1 -1 -1 -1 -1 -1 -1 -1 -1 -1 -1 -1 -1
 NAtoms=     77 NQM=       77 NQMF=       0 NMMI=      0 NMMIF=      0
                NMic=       0 NMicF=      0.
                    Isotopes and Nuclear Properties:
 (Nuclear quadrupole moments (NQMom) in fm**2, nuclear magnetic moments (NMagM)
  in nuclear magnetons)

  Atom         1           2           3           4           5           6           7           8           9          10
 IAtWgt=          12          12          12          12          12          12           1           1           1           1
 AtmWgt=  12.0000000  12.0000000  12.0000000  12.0000000  12.0000000  12.0000000   1.0078250   1.0078250   1.0078250   1.0078250
 NucSpn=           0           0           0           0           0           0           1           1           1           1
 AtZEff=  -0.0000000  -0.0000000  -0.0000000  -0.0000000  -0.0000000  -0.0000000  -0.0000000  -0.0000000  -0.0000000  -0.0000000
 NQMom=    0.0000000   0.0000000   0.0000000   0.0000000   0.0000000   0.0000000   0.0000000   0.0000000   0.0000000   0.0000000
 NMagM=    0.0000000   0.0000000   0.0000000   0.0000000   0.0000000   0.0000000   2.7928460   2.7928460   2.7928460   2.7928460
 AtZNuc=   6.0000000   6.0000000   6.0000000   6.0000000   6.0000000   6.0000000   1.0000000   1.0000000   1.0000000   1.0000000

  Atom        11          12          13          14          15          16          17          18          19          20
 IAtWgt=           1           1           1           1           1           1          14          12          12          12
 AtmWgt=   1.0078250   1.0078250   1.0078250   1.0078250   1.0078250   1.0078250  14.0030740  12.0000000  12.0000000  12.0000000
 NucSpn=           1           1           1           1           1           1           2           0           0           0
 AtZEff=  -0.0000000  -0.0000000  -0.0000000  -0.0000000  -0.0000000  -0.0000000  -0.0000000  -0.0000000  -0.0000000  -0.0000000
 NQMom=    0.0000000   0.0000000   0.0000000   0.0000000   0.0000000   0.0000000   2.0440000   0.0000000   0.0000000   0.0000000
 NMagM=    2.7928460   2.7928460   2.7928460   2.7928460   2.7928460   2.7928460   0.4037610   0.0000000   0.0000000   0.0000000
 AtZNuc=   1.0000000   1.0000000   1.0000000   1.0000000   1.0000000   1.0000000   7.0000000   6.0000000   6.0000000   6.0000000

  Atom        21          22          23          24          25          26          27          28          29          30
 IAtWgt=           1          12           1          12           1           1          14          12           1           1
 AtmWgt=   1.0078250  12.0000000   1.0078250  12.0000000   1.0078250   1.0078250  14.0030740  12.0000000   1.0078250   1.0078250
 NucSpn=           1           0           1           0           1           1           2           0           1           1
 AtZEff=  -0.0000000  -0.0000000  -0.0000000  -0.0000000  -0.0000000  -0.0000000  -0.0000000  -0.0000000  -0.0000000  -0.0000000
 NQMom=    0.0000000   0.0000000   0.0000000   0.0000000   0.0000000   0.0000000   2.0440000   0.0000000   0.0000000   0.0000000
 NMagM=    2.7928460   0.0000000   2.7928460   0.0000000   2.7928460   2.7928460   0.4037610   0.0000000   2.7928460   2.7928460
 AtZNuc=   1.0000000   6.0000000   1.0000000   6.0000000   1.0000000   1.0000000   7.0000000   6.0000000   1.0000000   1.0000000

  Atom        31          32          33          34          35          36          37          38          39          40
 IAtWgt=          12           1           1          14          32          16          16          12          12          12
 AtmWgt=  12.0000000   1.0078250   1.0078250  14.0030740  31.9720718  15.9949146  15.9949146  12.0000000  12.0000000  12.0000000
 NucSpn=           0           1           1           2           0           0           0           0           0           0
 AtZEff=  -0.0000000  -0.0000000  -0.0000000  -0.0000000  -0.0000000  -0.0000000  -0.0000000  -0.0000000  -0.0000000  -0.0000000
 NQMom=    0.0000000   0.0000000   0.0000000   2.0440000   0.0000000   0.0000000   0.0000000   0.0000000   0.0000000   0.0000000
 NMagM=    0.0000000   2.7928460   2.7928460   0.4037610   0.0000000   0.0000000   0.0000000   0.0000000   0.0000000   0.0000000
 AtZNuc=   6.0000000   1.0000000   1.0000000   7.0000000  16.0000000   8.0000000   8.0000000   6.0000000   6.0000000   6.0000000

  Atom        41          42          43          44          45          46          47          48          49          50
 IAtWgt=          12          12          12           1           1           1           1           1          16           1
 AtmWgt=  12.0000000  12.0000000  12.0000000   1.0078250   1.0078250   1.0078250   1.0078250   1.0078250  15.9949146   1.0078250
 NucSpn=           0           0           0           1           1           1           1           1           0           1
 AtZEff=  -0.0000000  -0.0000000  -0.0000000  -0.0000000  -0.0000000  -0.0000000  -0.0000000  -0.0000000  -0.0000000  -0.0000000
 NQMom=    0.0000000   0.0000000   0.0000000   0.0000000   0.0000000   0.0000000   0.0000000   0.0000000   0.0000000   0.0000000
 NMagM=    0.0000000   0.0000000   0.0000000   2.7928460   2.7928460   2.7928460   2.7928460   2.7928460   0.0000000   2.7928460
 AtZNuc=   6.0000000   6.0000000   6.0000000   1.0000000   1.0000000   1.0000000   1.0000000   1.0000000   8.0000000   1.0000000

  Atom        51          52          53          54          55          56          57          58          59          60
 IAtWgt=          12          16          16           1          12           1           1          12           1           1
 AtmWgt=  12.0000000  15.9949146  15.9949146   1.0078250  12.0000000   1.0078250   1.0078250  12.0000000   1.0078250   1.0078250
 NucSpn=           0           0           0           1           0           1           1           0           1           1
 AtZEff=  -0.0000000  -0.0000000  -0.0000000  -0.0000000  -0.0000000  -0.0000000  -0.0000000  -0.0000000  -0.0000000  -0.0000000
 NQMom=    0.0000000   0.0000000   0.0000000   0.0000000   0.0000000   0.0000000   0.0000000   0.0000000   0.0000000   0.0000000
 NMagM=    0.0000000   0.0000000   0.0000000   2.7928460   0.0000000   2.7928460   2.7928460   0.0000000   2.7928460   2.7928460
 AtZNuc=   6.0000000   8.0000000   8.0000000   1.0000000   6.0000000   1.0000000   1.0000000   6.0000000   1.0000000   1.0000000

  Atom        61          62          63          64          65          66          67          68          69          70
 IAtWgt=          12           1           1           1          12           1           1          12           1           1
 AtmWgt=  12.0000000   1.0078250   1.0078250   1.0078250  12.0000000   1.0078250   1.0078250  12.0000000   1.0078250   1.0078250
 NucSpn=           0           1           1           1           0           1           1           0           1           1
 AtZEff=  -0.0000000  -0.0000000  -0.0000000  -0.0000000  -0.0000000  -0.0000000  -0.0000000  -0.0000000  -0.0000000  -0.0000000
 NQMom=    0.0000000   0.0000000   0.0000000   0.0000000   0.0000000   0.0000000   0.0000000   0.0000000   0.0000000   0.0000000
 NMagM=    0.0000000   2.7928460   2.7928460   2.7928460   0.0000000   2.7928460   2.7928460   0.0000000   2.7928460   2.7928460
 AtZNuc=   6.0000000   1.0000000   1.0000000   1.0000000   6.0000000   1.0000000   1.0000000   6.0000000   1.0000000   1.0000000

  Atom        71          72          73          74          75          76          77
 IAtWgt=           1          12           1           1          12           1           1
 AtmWgt=   1.0078250  12.0000000   1.0078250   1.0078250  12.0000000   1.0078250   1.0078250
 NucSpn=           1           0           1           1           0           1           1
 AtZEff=  -0.0000000  -0.0000000  -0.0000000  -0.0000000  -0.0000000  -0.0000000  -0.0000000
 NQMom=    0.0000000   0.0000000   0.0000000   0.0000000   0.0000000   0.0000000   0.0000000
 NMagM=    2.7928460   0.0000000   2.7928460   2.7928460   0.0000000   2.7928460   2.7928460
 AtZNuc=   1.0000000   6.0000000   1.0000000   1.0000000   6.0000000   1.0000000   1.0000000
 Leave Link  101 at Fri Feb  8 01:45:54 2019, MaxMem=   104857600 cpu:               5.8 elap:               0.3
 (Enter /home/xinyan/g16/l103.exe)

 GradGradGradGradGradGradGradGradGradGradGradGradGradGradGradGradGradGrad
 Berny optimization.
 Initialization pass.
 Trust Radius=3.00D-01 FncErr=1.00D-07 GrdErr=1.00D-07 EigMax=2.50D+02 EigMin=1.00D-04
 Number of steps in this run=      2 maximum allowed number of steps=      2.
 GradGradGradGradGradGradGradGradGradGradGradGradGradGradGradGradGradGrad

 Leave Link  103 at Fri Feb  8 01:45:55 2019, MaxMem=   104857600 cpu:               1.6 elap:               0.1
 (Enter /home/xinyan/g16/l202.exe)
 Stoichiometry    C27H41N3O5S
 Framework group  C1[X(C27H41N3O5S)]
 Deg. of freedom   225
 Full point group                 C1      NOp   1
 Largest Abelian subgroup         C1      NOp   1
 Largest concise Abelian subgroup C1      NOp   1
                         Standard orientation:                         
 ---------------------------------------------------------------------
 Center     Atomic      Atomic             Coordinates (Angstroms)
 Number     Number       Type             X           Y           Z
 ---------------------------------------------------------------------
      1          6           0       -4.862575    0.027116   -0.411013
      2          6           0       -4.880972   -1.244341   -1.265007
      3          6           0       -3.495446   -1.521472   -1.860638
      4          6           0       -2.490288   -1.652287   -0.721147
      5          6           0       -2.413037   -0.341576    0.111023
      6          6           0       -3.804529   -0.051099    0.693620
      7          1           0       -3.501070   -2.430161   -2.473433
      8          1           0       -5.184421   -2.099189   -0.646395
      9          1           0       -5.616410   -1.155789   -2.071311
     10          1           0       -4.636573    0.886858   -1.057391
     11          1           0       -5.853429    0.202333    0.021596
     12          1           0       -2.792988   -2.469609   -0.061465
     13          1           0       -2.208483    0.452113   -0.622462
     14          1           0       -4.063122   -0.834674    1.417163
     15          1           0       -3.748162    0.901055    1.235458
     16          1           0       -3.228311   -0.676934   -2.510973
     17          7           0       -1.119176   -1.989749   -1.168439
     18          6           0       -0.516092   -1.276035   -2.146455
     19          6           0       -0.356088   -2.754155   -0.352114
     20          6           0        0.837010   -1.289191   -2.328063
     21          1           0       -1.165753   -0.669238   -2.764013
     22          6           0        1.003067   -2.815495   -0.469708
     23          1           0       -0.885249   -3.273589    0.439577
     24          6           0        1.666361   -2.003401   -1.420196
     25          1           0        1.261772   -0.702090   -3.131621
     26          1           0        1.547345   -3.404562    0.255080
     27          7           0        3.002001   -1.901490   -1.446360
     28          6           0        3.814508   -2.432891   -0.345703
     29          1           0        3.759795   -3.525224   -0.315873
     30          1           0        3.437394   -2.029192    0.604451
     31          6           0        3.686214   -0.801502   -2.142359
     32          1           0        3.935157   -1.099701   -3.168334
     33          1           0        3.041135    0.080769   -2.160804
     34          7           0       -1.291789   -0.299800    1.028379
     35         16           0       -1.251898   -1.265993    2.276594
     36          8           0       -2.231050   -2.374326    2.218580
     37          8           0        0.150006   -1.705910    2.516799
     38          6           0       -1.230460    2.833337   -0.176148
     39          6           0       -0.442216    2.209323   -1.147660
     40          6           0       -0.910821    2.094867   -2.455210
     41          6           0       -2.176176    2.567296   -2.801819
     42          6           0       -2.970932    3.173410   -1.830205
     43          6           0       -2.494969    3.307153   -0.528360
     44          1           0        0.512802    1.773682   -0.859749
     45          1           0       -0.284076    1.625906   -3.210472
     46          1           0       -2.540966    2.467789   -3.819933
     47          1           0       -3.961879    3.538683   -2.084037
     48          1           0       -3.118905    3.772913    0.231743
     49          8           0        0.171878    1.963330    1.607510
     50          1           0       -0.269173    1.098469    1.364244
     51          6           0        2.430350    0.668686    1.278124
     52          8           0        2.158330    0.220352    0.176858
     53          8           0        2.148318    0.054262    2.413435
     54          1           0        1.481760   -0.675198    2.274849
     55          6           0        3.182445    1.961458    1.490956
     56          1           0        2.724674    2.464870    2.346940
     57          1           0        4.212448    1.708719    1.782187
     58          6           0       -0.731260    2.968791    1.248908
     59          1           0       -1.602097    2.998506    1.926384
     60          1           0       -0.207209    3.927012    1.363529
     61          6           0       -1.653338   -0.277110    3.714335
     62          1           0       -0.964514    0.571133    3.723442
     63          1           0       -2.685297    0.065280    3.615163
     64          1           0       -1.532220   -0.888603    4.609553
     65          6           0        3.169027    2.853086    0.256505
     66          1           0        3.583241    2.303207   -0.597384
     67          1           0        2.125492    3.071677    0.004506
     68          6           0        3.940008    4.151452    0.473506
     69          1           0        3.920170    4.780679   -0.420869
     70          1           0        3.508186    4.727783    1.298354
     71          1           0        4.988395    3.953081    0.721843
     72          6           0        5.216462   -1.916039   -0.656679
     73          1           0        5.835553   -1.851881    0.240314
     74          1           0        5.713075   -2.580288   -1.371621
     75          6           0        4.936333   -0.552978   -1.294213
     76          1           0        4.688630    0.175117   -0.515961
     77          1           0        5.771024   -0.168636   -1.883981
 ---------------------------------------------------------------------
 Rotational constants (GHZ):           0.1428767           0.0957034           0.0860761
 Leave Link  202 at Fri Feb  8 01:45:55 2019, MaxMem=   104857600 cpu:               2.4 elap:               0.1
 (Enter /home/xinyan/g16/l301.exe)
 Standard basis: 6-31G(d) (6D, 7F)
 Ernie: Thresh=  0.10000D-02 Tol=  0.10000D-05 Strict=F.
 There are   626 symmetry adapted cartesian basis functions of A   symmetry.
 There are   626 symmetry adapted basis functions of A   symmetry.
   626 basis functions,  1196 primitive gaussians,   626 cartesian basis functions
   140 alpha electrons      140 beta electrons
       nuclear repulsion energy      4877.8719427076 Hartrees.
 IExCor= 4336 DFT=T Ex+Corr=M062X ExCW=0 ScaHFX=  0.540000
 ScaDFX=  1.000000  1.000000  1.000000  1.000000 ScalE2=  1.000000  1.000000
 IRadAn=      5 IRanWt=     -1 IRanGd=            0 ICorTp=0 IEmpDi=131
 NAtoms=   77 NActive=   77 NUniq=   77 SFac= 1.00D+00 NAtFMM=   60 NAOKFM=T Big=T
 Integral buffers will be    131072 words long.
 Raffenetti 2 integral format.
 Two-electron integral symmetry is turned on.
 R6Disp:  Grimme-D3 Dispersion energy=       -0.0105722406 Hartrees.
 Nuclear repulsion after empirical dispersion term =     4877.8613704671 Hartrees.
 Leave Link  301 at Fri Feb  8 01:45:55 2019, MaxMem=   104857600 cpu:               3.0 elap:               0.2
 (Enter /home/xinyan/g16/l302.exe)
 NPDir=0 NMtPBC=     1 NCelOv=     1 NCel=       1 NClECP=     1 NCelD=      1
         NCelK=      1 NCelE2=     1 NClLst=     1 CellRange=     0.0.
 One-electron integrals computed using PRISM.
 One-electron integral symmetry used in STVInt
 PrsmSu:  requested number of processors reduced to:  23 ShMem   1 Linda.
 NBasis=   626 RedAO= T EigKep=  4.36D-04  NBF=   626
 NBsUse=   626 1.00D-06 EigRej= -1.00D+00 NBFU=   626
 Precomputing XC quadrature grid using
 IXCGrd= 4 IRadAn=           5 IRanWt=          -1 IRanGd=           0 AccXCQ= 0.00D+00.
 Generated NRdTot=       0 NPtTot=           0 NUsed=           0 NTot=          32
 NSgBfM=   615   613   614   615   615 MxSgAt=    77 MxSgA2=    77.
 Leave Link  302 at Fri Feb  8 01:45:58 2019, MaxMem=   104857600 cpu:              81.2 elap:               3.6
 (Enter /home/xinyan/g16/l303.exe)
 DipDrv:  MaxL=1.
 Leave Link  303 at Fri Feb  8 01:45:59 2019, MaxMem=   104857600 cpu:               6.1 elap:               0.3
 (Enter /home/xinyan/g16/l401.exe)
 ExpMin= 1.17D-01 ExpMax= 2.19D+04 ExpMxC= 3.30D+03 IAcc=3 IRadAn=         5 AccDes= 0.00D+00
 Harris functional with IExCor= 1009 and IRadAn=       5 diagonalized for initial guess.
 HarFok:  IExCor= 1009 AccDes= 0.00D+00 IRadAn=         5 IDoV= 1 UseB2=F ITyADJ=14
 ICtDFT=  3500011 ScaDFX=  1.000000  1.000000  1.000000  1.000000
 FoFCou: FMM=F IPFlag=           0 FMFlag=      100000 FMFlg1=        2001
         NFxFlg=           0 DoJE=T BraDBF=F KetDBF=T FulRan=T
         wScrn=  0.000000 ICntrl=       500 IOpCl=  0 I1Cent=   200000004 NGrid=           0
         NMat0=    1 NMatS0=      1 NMatT0=    0 NMatD0=    1 NMtDS0=    0 NMtDT0=    0
 Petite list used in FoFCou.
 Harris En= -1990.55452144714    
 JPrj=0 DoOrth=F DoCkMO=F.
 Leave Link  401 at Fri Feb  8 01:46:03 2019, MaxMem=   104857600 cpu:              97.3 elap:               4.1
 (Enter /home/xinyan/g16/l502.exe)
 Integral symmetry usage will be decided dynamically.
 Closed shell SCF:
 Using DIIS extrapolation, IDIIS=  1040.
 NGot=   104857600 LenX=   104051656 LenY=   103659154
 Requested convergence on RMS density matrix=1.00D-08 within 128 cycles.
 Requested convergence on MAX density matrix=1.00D-06.
 Requested convergence on             energy=1.00D-06.
 No special actions if energy rises.
 Fock matrices will be formed incrementally for  20 cycles.
 Integral accuracy reduced to 1.0D-05 until final iterations.

 Cycle   1  Pass 0  IDiag  1:
 FoFJK:  IHMeth= 1 ICntrl=       0 DoSepK=F KAlg= 0 I1Cent=           0 FoldK=F
 IRaf= 990000000 NMat=       1 IRICut=       1 DoRegI=T DoRafI=F ISym2E= 0 IDoP0=0 IntGTp=1.
 FoFCou: FMM=T IPFlag=           0 FMFlag=      100000 FMFlg1=        2001
         NFxFlg=           0 DoJE=F BraDBF=F KetDBF=F FulRan=T
         wScrn=  0.000000 ICntrl=         0 IOpCl=  0 I1Cent=           0 NGrid=           0
         NMat0=    1 NMatS0=      1 NMatT0=    0 NMatD0=    1 NMtDS0=    0 NMtDT0=    0
 Symmetry not used in FoFCou.
 FMM levels:  10  Number of levels for PrismC:   9
 E= -1990.35036571996    
 DIIS: error= 2.55D-02 at cycle   1 NSaved=   1.
 NSaved= 1 IEnMin= 1 EnMin= -1990.35036571996     IErMin= 1 ErrMin= 2.55D-02
 ErrMax= 2.55D-02  0.00D+00 EMaxC= 1.00D-01 BMatC= 1.22D+00 BMatP= 1.22D+00
 IDIUse=3 WtCom= 7.45D-01 WtEn= 2.55D-01
 Coeff-Com:  0.100D+01
 Coeff-En:   0.100D+01
 Coeff:      0.100D+01
 Gap=     0.377 Goal=   None    Shift=    0.000
 GapD=    0.377 DampG=1.000 DampE=0.500 DampFc=0.5000 IDamp=-1.
 Damping current iteration by 5.00D-01
 RMSDP=3.20D-03 MaxDP=3.20D-01              OVMax= 1.42D-01

 Cycle   2  Pass 0  IDiag  1:
 RMSU=  1.59D-03    CP:  9.87D-01
 E= -1990.86406392232     Delta-E=       -0.513698202360 Rises=F Damp=T
 DIIS: error= 9.88D-03 at cycle   2 NSaved=   2.
 NSaved= 2 IEnMin= 2 EnMin= -1990.86406392232     IErMin= 2 ErrMin= 9.88D-03
 ErrMax= 9.88D-03  0.00D+00 EMaxC= 1.00D-01 BMatC= 8.81D-02 BMatP= 1.22D+00
 IDIUse=3 WtCom= 9.01D-01 WtEn= 9.88D-02
 Coeff-Com: -0.439D-01 0.104D+01
 Coeff-En:   0.000D+00 0.100D+01
 Coeff:     -0.395D-01 0.104D+01
 Gap=     0.253 Goal=   None    Shift=    0.000
 RMSDP=7.74D-04 MaxDP=7.51D-02 DE=-5.14D-01 OVMax= 9.35D-02

 Cycle   3  Pass 0  IDiag  1:
 RMSU=  7.69D-04    CP:  9.81D-01  1.01D+00
 E= -1991.36002547754     Delta-E=       -0.495961555220 Rises=F Damp=F
 DIIS: error= 6.40D-03 at cycle   3 NSaved=   3.
 NSaved= 3 IEnMin= 3 EnMin= -1991.36002547754     IErMin= 3 ErrMin= 6.40D-03
 ErrMax= 6.40D-03  0.00D+00 EMaxC= 1.00D-01 BMatC= 3.70D-02 BMatP= 8.81D-02
 IDIUse=3 WtCom= 9.36D-01 WtEn= 6.40D-02
 Coeff-Com: -0.709D-01 0.407D+00 0.664D+00
 Coeff-En:   0.000D+00 0.000D+00 0.100D+01
 Coeff:     -0.663D-01 0.381D+00 0.686D+00
 Gap=     0.253 Goal=   None    Shift=    0.000
 RMSDP=4.20D-04 MaxDP=4.01D-02 DE=-4.96D-01 OVMax= 4.32D-02

 Cycle   4  Pass 0  IDiag  1:
 RMSU=  2.87D-04    CP:  9.83D-01  1.09D+00  6.36D-01
 E= -1991.38142190533     Delta-E=       -0.021396427788 Rises=F Damp=F
 DIIS: error= 4.22D-03 at cycle   4 NSaved=   4.
 NSaved= 4 IEnMin= 4 EnMin= -1991.38142190533     IErMin= 4 ErrMin= 4.22D-03
 ErrMax= 4.22D-03  0.00D+00 EMaxC= 1.00D-01 BMatC= 1.05D-02 BMatP= 3.70D-02
 IDIUse=3 WtCom= 9.58D-01 WtEn= 4.22D-02
 Coeff-Com: -0.263D-01 0.866D-01 0.376D+00 0.564D+00
 Coeff-En:   0.000D+00 0.000D+00 0.227D+00 0.773D+00
 Coeff:     -0.252D-01 0.830D-01 0.369D+00 0.573D+00
 Gap=     0.243 Goal=   None    Shift=    0.000
 RMSDP=1.78D-04 MaxDP=1.24D-02 DE=-2.14D-02 OVMax= 1.87D-02

 Cycle   5  Pass 0  IDiag  1:
 RMSU=  8.31D-05    CP:  9.82D-01  1.08D+00  7.49D-01  5.44D-01
 E= -1991.38983281610     Delta-E=       -0.008410910766 Rises=F Damp=F
 DIIS: error= 9.57D-04 at cycle   5 NSaved=   5.
 NSaved= 5 IEnMin= 5 EnMin= -1991.38983281610     IErMin= 5 ErrMin= 9.57D-04
 ErrMax= 9.57D-04  0.00D+00 EMaxC= 1.00D-01 BMatC= 5.87D-04 BMatP= 1.05D-02
 IDIUse=3 WtCom= 9.90D-01 WtEn= 9.57D-03
 Coeff-Com: -0.819D-02 0.196D-01 0.145D+00 0.289D+00 0.555D+00
 Coeff-En:   0.000D+00 0.000D+00 0.000D+00 0.000D+00 0.100D+01
 Coeff:     -0.811D-02 0.194D-01 0.143D+00 0.286D+00 0.559D+00
 Gap=     0.245 Goal=   None    Shift=    0.000
 RMSDP=4.82D-05 MaxDP=3.76D-03 DE=-8.41D-03 OVMax= 5.47D-03

 Cycle   6  Pass 0  IDiag  1:
 RMSU=  2.40D-05    CP:  9.82D-01  1.08D+00  7.52D-01  6.18D-01  5.66D-01
 E= -1991.39033631412     Delta-E=       -0.000503498027 Rises=F Damp=F
 DIIS: error= 2.09D-04 at cycle   6 NSaved=   6.
 NSaved= 6 IEnMin= 6 EnMin= -1991.39033631412     IErMin= 6 ErrMin= 2.09D-04
 ErrMax= 2.09D-04  0.00D+00 EMaxC= 1.00D-01 BMatC= 3.82D-05 BMatP= 5.87D-04
 IDIUse=3 WtCom= 9.98D-01 WtEn= 2.09D-03
 Coeff-Com: -0.120D-02 0.109D-02 0.306D-01 0.772D-01 0.260D+00 0.632D+00
 Coeff-En:   0.000D+00 0.000D+00 0.000D+00 0.000D+00 0.000D+00 0.100D+01
 Coeff:     -0.120D-02 0.109D-02 0.305D-01 0.771D-01 0.260D+00 0.633D+00
 Gap=     0.244 Goal=   None    Shift=    0.000
 RMSDP=1.23D-05 MaxDP=6.53D-04 DE=-5.03D-04 OVMax= 1.78D-03

 Cycle   7  Pass 0  IDiag  1:
 RMSU=  7.86D-06    CP:  9.82D-01  1.08D+00  7.55D-01  6.17D-01  6.40D-01
                    CP:  7.17D-01
 E= -1991.39037354374     Delta-E=       -0.000037229622 Rises=F Damp=F
 DIIS: error= 3.89D-05 at cycle   7 NSaved=   7.
 NSaved= 7 IEnMin= 7 EnMin= -1991.39037354374     IErMin= 7 ErrMin= 3.89D-05
 ErrMax= 3.89D-05  0.00D+00 EMaxC= 1.00D-01 BMatC= 2.92D-06 BMatP= 3.82D-05
 IDIUse=1 WtCom= 1.00D+00 WtEn= 0.00D+00
 Coeff-Com:  0.295D-03-0.145D-02-0.788D-03 0.591D-02 0.624D-01 0.268D+00
 Coeff-Com:  0.665D+00
 Coeff:      0.295D-03-0.145D-02-0.788D-03 0.591D-02 0.624D-01 0.268D+00
 Coeff:      0.665D+00
 Gap=     0.244 Goal=   None    Shift=    0.000
 RMSDP=4.16D-06 MaxDP=2.36D-04 DE=-3.72D-05 OVMax= 3.27D-04

 Initial convergence to 1.0D-05 achieved.  Increase integral accuracy.
 Cycle   8  Pass 1  IDiag  1:
 E= -1991.39062118924     Delta-E=       -0.000247645493 Rises=F Damp=F
 DIIS: error= 1.54D-04 at cycle   1 NSaved=   1.
 NSaved= 1 IEnMin= 1 EnMin= -1991.39062118924     IErMin= 1 ErrMin= 1.54D-04
 ErrMax= 1.54D-04  0.00D+00 EMaxC= 1.00D-01 BMatC= 1.25D-05 BMatP= 1.25D-05
 IDIUse=3 WtCom= 9.98D-01 WtEn= 1.54D-03
 Coeff-Com:  0.100D+01
 Coeff-En:   0.100D+01
 Coeff:      0.100D+01
 Gap=     0.245 Goal=   None    Shift=    0.000
 RMSDP=4.16D-06 MaxDP=2.36D-04 DE=-2.48D-04 OVMax= 5.34D-04

 Cycle   9  Pass 1  IDiag  1:
 RMSU=  6.87D-05    CP:  1.00D+00
 E= -1991.39063265653     Delta-E=       -0.000011467296 Rises=F Damp=F
 DIIS: error= 3.09D-05 at cycle   2 NSaved=   2.
 NSaved= 2 IEnMin= 2 EnMin= -1991.39063265653     IErMin= 2 ErrMin= 3.09D-05
 ErrMax= 3.09D-05  0.00D+00 EMaxC= 1.00D-01 BMatC= 9.17D-07 BMatP= 1.25D-05
 IDIUse=1 WtCom= 1.00D+00 WtEn= 0.00D+00
 Coeff-Com:  0.819D-01 0.918D+00
 Coeff:      0.819D-01 0.918D+00
 Gap=     0.244 Goal=   None    Shift=    0.000
 RMSDP=4.12D-06 MaxDP=2.60D-04 DE=-1.15D-05 OVMax= 4.36D-04

 Cycle  10  Pass 1  IDiag  1:
 RMSU=  3.61D-06    CP:  1.00D+00  1.03D+00
 E= -1991.39063212568     Delta-E=        0.000000530852 Rises=F Damp=F
 DIIS: error= 4.61D-05 at cycle   3 NSaved=   3.
 NSaved= 3 IEnMin= 2 EnMin= -1991.39063265653     IErMin= 2 ErrMin= 3.09D-05
 ErrMax= 4.61D-05  0.00D+00 EMaxC= 1.00D-01 BMatC= 1.52D-06 BMatP= 9.17D-07
 IDIUse=1 WtCom= 1.00D+00 WtEn= 0.00D+00
 Coeff-Com: -0.159D-01 0.570D+00 0.446D+00
 Coeff:     -0.159D-01 0.570D+00 0.446D+00
 Gap=     0.244 Goal=   None    Shift=    0.000
 RMSDP=2.01D-06 MaxDP=1.59D-04 DE= 5.31D-07 OVMax= 3.05D-04

 Cycle  11  Pass 1  IDiag  1:
 RMSU=  6.20D-07    CP:  1.00D+00  1.03D+00  4.79D-01
 E= -1991.39063345792     Delta-E=       -0.000001332242 Rises=F Damp=F
 DIIS: error= 4.10D-06 at cycle   4 NSaved=   4.
 NSaved= 4 IEnMin= 4 EnMin= -1991.39063345792     IErMin= 4 ErrMin= 4.10D-06
 ErrMax= 4.10D-06  0.00D+00 EMaxC= 1.00D-01 BMatC= 1.00D-08 BMatP= 9.17D-07
 IDIUse=1 WtCom= 1.00D+00 WtEn= 0.00D+00
 Coeff-Com: -0.844D-02 0.250D+00 0.211D+00 0.547D+00
 Coeff:     -0.844D-02 0.250D+00 0.211D+00 0.547D+00
 Gap=     0.244 Goal=   None    Shift=    0.000
 RMSDP=2.05D-07 MaxDP=1.12D-05 DE=-1.33D-06 OVMax= 1.88D-05

 Cycle  12  Pass 1  IDiag  1:
 RMSU=  1.84D-07    CP:  1.00D+00  1.03D+00  4.95D-01  8.95D-01
 E= -1991.39063346703     Delta-E=       -0.000000009108 Rises=F Damp=F
 DIIS: error= 1.40D-06 at cycle   5 NSaved=   5.
 NSaved= 5 IEnMin= 5 EnMin= -1991.39063346703     IErMin= 5 ErrMin= 1.40D-06
 ErrMax= 1.40D-06  0.00D+00 EMaxC= 1.00D-01 BMatC= 8.82D-10 BMatP= 1.00D-08
 IDIUse=1 WtCom= 1.00D+00 WtEn= 0.00D+00
 Coeff-Com: -0.530D-03-0.683D-03 0.993D-02 0.200D+00 0.791D+00
 Coeff:     -0.530D-03-0.683D-03 0.993D-02 0.200D+00 0.791D+00
 Gap=     0.244 Goal=   None    Shift=    0.000
 RMSDP=8.83D-08 MaxDP=4.08D-06 DE=-9.11D-09 OVMax= 1.31D-05

 Cycle  13  Pass 1  IDiag  1:
 RMSU=  6.57D-08    CP:  1.00D+00  1.03D+00  4.99D-01  9.79D-01  8.93D-01
 E= -1991.39063346783     Delta-E=       -0.000000000799 Rises=F Damp=F
 DIIS: error= 7.88D-07 at cycle   6 NSaved=   6.
 NSaved= 6 IEnMin= 6 EnMin= -1991.39063346783     IErMin= 6 ErrMin= 7.88D-07
 ErrMax= 7.88D-07  0.00D+00 EMaxC= 1.00D-01 BMatC= 2.84D-10 BMatP= 8.82D-10
 IDIUse=1 WtCom= 1.00D+00 WtEn= 0.00D+00
 Coeff-Com:  0.975D-03-0.379D-01-0.246D-01 0.240D-01 0.440D+00 0.597D+00
 Coeff:      0.975D-03-0.379D-01-0.246D-01 0.240D-01 0.440D+00 0.597D+00
 Gap=     0.244 Goal=   None    Shift=    0.000
 RMSDP=3.41D-08 MaxDP=2.84D-06 DE=-7.99D-10 OVMax= 5.16D-06

 Cycle  14  Pass 1  IDiag  1:
 RMSU=  2.46D-08    CP:  1.00D+00  1.03D+00  5.02D-01  9.92D-01  9.77D-01
                    CP:  8.10D-01
 E= -1991.39063346812     Delta-E=       -0.000000000294 Rises=F Damp=F
 DIIS: error= 2.28D-07 at cycle   7 NSaved=   7.
 NSaved= 7 IEnMin= 7 EnMin= -1991.39063346812     IErMin= 7 ErrMin= 2.28D-07
 ErrMax= 2.28D-07  0.00D+00 EMaxC= 1.00D-01 BMatC= 1.72D-11 BMatP= 2.84D-10
 IDIUse=1 WtCom= 1.00D+00 WtEn= 0.00D+00
 Coeff-Com:  0.441D-03-0.153D-01-0.101D-01-0.124D-01 0.100D+00 0.232D+00
 Coeff-Com:  0.705D+00
 Coeff:      0.441D-03-0.153D-01-0.101D-01-0.124D-01 0.100D+00 0.232D+00
 Coeff:      0.705D+00
 Gap=     0.244 Goal=   None    Shift=    0.000
 RMSDP=1.07D-08 MaxDP=7.71D-07 DE=-2.94D-10 OVMax= 1.33D-06

 Cycle  15  Pass 1  IDiag  1:
 RMSU=  8.17D-09    CP:  1.00D+00  1.03D+00  5.03D-01  9.95D-01  9.90D-01
                    CP:  8.88D-01  1.08D+00
 E= -1991.39063346815     Delta-E=       -0.000000000023 Rises=F Damp=F
 DIIS: error= 7.44D-08 at cycle   8 NSaved=   8.
 NSaved= 8 IEnMin= 8 EnMin= -1991.39063346815     IErMin= 8 ErrMin= 7.44D-08
 ErrMax= 7.44D-08  0.00D+00 EMaxC= 1.00D-01 BMatC= 2.81D-12 BMatP= 1.72D-11
 IDIUse=1 WtCom= 1.00D+00 WtEn= 0.00D+00
 Coeff-Com: -0.338D-04 0.205D-02 0.163D-02-0.109D-01-0.512D-01-0.286D-01
 Coeff-Com:  0.289D+00 0.798D+00
 Coeff:     -0.338D-04 0.205D-02 0.163D-02-0.109D-01-0.512D-01-0.286D-01
 Coeff:      0.289D+00 0.798D+00
 Gap=     0.244 Goal=   None    Shift=    0.000
 RMSDP=4.72D-09 MaxDP=3.40D-07 DE=-2.27D-11 OVMax= 7.87D-07

 SCF Done:  E(RM062X) =  -1991.39063347     A.U. after   15 cycles
            NFock= 15  Conv=0.47D-08     -V/T= 2.0076
 KE= 1.976459942570D+03 PE=-1.440824627185D+04 EE= 5.562534325342D+03
 Leave Link  502 at Fri Feb  8 01:48:36 2019, MaxMem=   104857600 cpu:            3660.2 elap:             153.0
 (Enter /home/xinyan/g16/l601.exe)
 Copying SCF densities to generalized density rwf, IOpCl= 0 IROHF=0.

 **********************************************************************

            Population analysis using the SCF density.

 **********************************************************************

 Orbital symmetries:
       Occupied  (A) (A) (A) (A) (A) (A) (A) (A) (A) (A) (A) (A)
                 (A) (A) (A) (A) (A) (A) (A) (A) (A) (A) (A) (A)
                 (A) (A) (A) (A) (A) (A) (A) (A) (A) (A) (A) (A)
                 (A) (A) (A) (A) (A) (A) (A) (A) (A) (A) (A) (A)
                 (A) (A) (A) (A) (A) (A) (A) (A) (A) (A) (A) (A)
                 (A) (A) (A) (A) (A) (A) (A) (A) (A) (A) (A) (A)
                 (A) (A) (A) (A) (A) (A) (A) (A) (A) (A) (A) (A)
                 (A) (A) (A) (A) (A) (A) (A) (A) (A) (A) (A) (A)
                 (A) (A) (A) (A) (A) (A) (A) (A) (A) (A) (A) (A)
                 (A) (A) (A) (A) (A) (A) (A) (A) (A) (A) (A) (A)
                 (A) (A) (A) (A) (A) (A) (A) (A) (A) (A) (A) (A)
                 (A) (A) (A) (A) (A) (A) (A) (A)
       Virtual   (A) (A) (A) (A) (A) (A) (A) (A) (A) (A) (A) (A)
                 (A) (A) (A) (A) (A) (A) (A) (A) (A) (A) (A) (A)
                 (A) (A) (A) (A) (A) (A) (A) (A) (A) (A) (A) (A)
                 (A) (A) (A) (A) (A) (A) (A) (A) (A) (A) (A) (A)
                 (A) (A) (A) (A) (A) (A) (A) (A) (A) (A) (A) (A)
                 (A) (A) (A) (A) (A) (A) (A) (A) (A) (A) (A) (A)
                 (A) (A) (A) (A) (A) (A) (A) (A) (A) (A) (A) (A)
                 (A) (A) (A) (A) (A) (A) (A) (A) (A) (A) (A) (A)
                 (A) (A) (A) (A) (A) (A) (A) (A) (A) (A) (A) (A)
                 (A) (A) (A) (A) (A) (A) (A) (A) (A) (A) (A) (A)
                 (A) (A) (A) (A) (A) (A) (A) (A) (A) (A) (A) (A)
                 (A) (A) (A) (A) (A) (A) (A) (A) (A) (A) (A) (A)
                 (A) (A) (A) (A) (A) (A) (A) (A) (A) (A) (A) (A)
                 (A) (A) (A) (A) (A) (A) (A) (A) (A) (A) (A) (A)
                 (A) (A) (A) (A) (A) (A) (A) (A) (A) (A) (A) (A)
                 (A) (A) (A) (A) (A) (A) (A) (A) (A) (A) (A) (A)
                 (A) (A) (A) (A) (A) (A) (A) (A) (A) (A) (A) (A)
                 (A) (A) (A) (A) (A) (A) (A) (A) (A) (A) (A) (A)
                 (A) (A) (A) (A) (A) (A) (A) (A) (A) (A) (A) (A)
                 (A) (A) (A) (A) (A) (A) (A) (A) (A) (A) (A) (A)
                 (A) (A) (A) (A) (A) (A) (A) (A) (A) (A) (A) (A)
                 (A) (A) (A) (A) (A) (A) (A) (A) (A) (A) (A) (A)
                 (A) (A) (A) (A) (A) (A) (A) (A) (A) (A) (A) (A)
                 (A) (A) (A) (A) (A) (A) (A) (A) (A) (A) (A) (A)
                 (A) (A) (A) (A) (A) (A) (A) (A) (A) (A) (A) (A)
                 (A) (A) (A) (A) (A) (A) (A) (A) (A) (A) (A) (A)
                 (A) (A) (A) (A) (A) (A) (A) (A) (A) (A) (A) (A)
                 (A) (A) (A) (A) (A) (A) (A) (A) (A) (A) (A) (A)
                 (A) (A) (A) (A) (A) (A) (A) (A) (A) (A) (A) (A)
                 (A) (A) (A) (A) (A) (A) (A) (A) (A) (A) (A) (A)
                 (A) (A) (A) (A) (A) (A) (A) (A) (A) (A) (A) (A)
                 (A) (A) (A) (A) (A) (A) (A) (A) (A) (A) (A) (A)
                 (A) (A) (A) (A) (A) (A) (A) (A) (A) (A) (A) (A)
                 (A) (A) (A) (A) (A) (A) (A) (A) (A) (A) (A) (A)
                 (A) (A) (A) (A) (A) (A) (A) (A) (A) (A) (A) (A)
                 (A) (A) (A) (A) (A) (A) (A) (A) (A) (A) (A) (A)
                 (A) (A) (A) (A) (A) (A) (A) (A) (A) (A) (A) (A)
                 (A) (A) (A) (A) (A) (A) (A) (A) (A) (A) (A) (A)
                 (A) (A) (A) (A) (A) (A) (A) (A) (A) (A) (A) (A)
                 (A) (A) (A) (A) (A) (A) (A) (A) (A) (A) (A) (A)
                 (A) (A) (A) (A) (A) (A)
 The electronic state is 1-A.
 Alpha  occ. eigenvalues --  -90.10409 -19.63406 -19.60121 -19.59349 -19.58641
 Alpha  occ. eigenvalues --  -19.58389 -14.84820 -14.80541 -14.69453 -10.65449
 Alpha  occ. eigenvalues --  -10.63248 -10.62378 -10.61538 -10.59167 -10.59147
 Alpha  occ. eigenvalues --  -10.59019 -10.57812 -10.57421 -10.56863 -10.56653
 Alpha  occ. eigenvalues --  -10.56096 -10.55784 -10.55482 -10.54963 -10.54917
 Alpha  occ. eigenvalues --  -10.54854 -10.54567 -10.54533 -10.54482 -10.53812
 Alpha  occ. eigenvalues --  -10.53728 -10.53560 -10.53112 -10.52903 -10.52654
 Alpha  occ. eigenvalues --  -10.52480  -8.41376  -6.33613  -6.33521  -6.33440
 Alpha  occ. eigenvalues --   -1.19147  -1.17942  -1.12954  -1.10361  -1.09858
 Alpha  occ. eigenvalues --   -1.09188  -1.06211  -0.97571  -0.95245  -0.94840
 Alpha  occ. eigenvalues --   -0.92198  -0.89863  -0.88608  -0.87974  -0.85022
 Alpha  occ. eigenvalues --   -0.84969  -0.83652  -0.83510  -0.83304  -0.80231
 Alpha  occ. eigenvalues --   -0.79074  -0.76375  -0.75675  -0.74664  -0.70954
 Alpha  occ. eigenvalues --   -0.70201  -0.69032  -0.68752  -0.68372  -0.67980
 Alpha  occ. eigenvalues --   -0.65717  -0.64727  -0.63966  -0.63441  -0.61669
 Alpha  occ. eigenvalues --   -0.60287  -0.59414  -0.58938  -0.58378  -0.56178
 Alpha  occ. eigenvalues --   -0.55489  -0.55159  -0.55069  -0.53999  -0.53659
 Alpha  occ. eigenvalues --   -0.53434  -0.53087  -0.52318  -0.51987  -0.51734
 Alpha  occ. eigenvalues --   -0.51181  -0.51020  -0.50614  -0.50279  -0.49834
 Alpha  occ. eigenvalues --   -0.49635  -0.49414  -0.48859  -0.48378  -0.48021
 Alpha  occ. eigenvalues --   -0.47761  -0.47172  -0.46963  -0.46858  -0.45959
 Alpha  occ. eigenvalues --   -0.45890  -0.45259  -0.43975  -0.43652  -0.43425
 Alpha  occ. eigenvalues --   -0.42758  -0.42429  -0.42289  -0.41925  -0.41851
 Alpha  occ. eigenvalues --   -0.41165  -0.40813  -0.40611  -0.39931  -0.39517
 Alpha  occ. eigenvalues --   -0.39380  -0.39169  -0.38689  -0.38376  -0.37773
 Alpha  occ. eigenvalues --   -0.37397  -0.36298  -0.35948  -0.35394  -0.35106
 Alpha  occ. eigenvalues --   -0.34430  -0.33171  -0.32138  -0.31674  -0.31517
 Alpha  occ. eigenvalues --   -0.29825  -0.28877  -0.28329  -0.27581  -0.25467
 Alpha virt. eigenvalues --   -0.01023   0.00643   0.03350   0.03832   0.09088
 Alpha virt. eigenvalues --    0.10104   0.10968   0.11711   0.13008   0.13380
 Alpha virt. eigenvalues --    0.13776   0.14172   0.15260   0.15566   0.15730
 Alpha virt. eigenvalues --    0.16273   0.16529   0.17153   0.17431   0.17864
 Alpha virt. eigenvalues --    0.18225   0.18329   0.18578   0.18890   0.19011
 Alpha virt. eigenvalues --    0.19384   0.19617   0.20211   0.20304   0.20331
 Alpha virt. eigenvalues --    0.20852   0.21053   0.21130   0.21491   0.21811
 Alpha virt. eigenvalues --    0.22320   0.22411   0.22825   0.22839   0.23251
 Alpha virt. eigenvalues --    0.23472   0.24087   0.24240   0.24318   0.24626
 Alpha virt. eigenvalues --    0.24905   0.24964   0.25470   0.26151   0.26360
 Alpha virt. eigenvalues --    0.27050   0.27302   0.27753   0.28017   0.28158
 Alpha virt. eigenvalues --    0.28714   0.29058   0.29656   0.30325   0.30407
 Alpha virt. eigenvalues --    0.30851   0.31050   0.31382   0.31760   0.32471
 Alpha virt. eigenvalues --    0.32690   0.33349   0.34611   0.35268   0.35442
 Alpha virt. eigenvalues --    0.35717   0.36550   0.37128   0.38446   0.38474
 Alpha virt. eigenvalues --    0.38861   0.39718   0.41453   0.42094   0.42800
 Alpha virt. eigenvalues --    0.45046   0.47185   0.47633   0.48614   0.50089
 Alpha virt. eigenvalues --    0.51363   0.52712   0.53554   0.54004   0.55386
 Alpha virt. eigenvalues --    0.55655   0.56100   0.56998   0.57178   0.57945
 Alpha virt. eigenvalues --    0.58033   0.58165   0.58772   0.58997   0.59377
 Alpha virt. eigenvalues --    0.59573   0.60317   0.60846   0.61085   0.61244
 Alpha virt. eigenvalues --    0.61443   0.61590   0.61793   0.62407   0.62608
 Alpha virt. eigenvalues --    0.63380   0.63860   0.64461   0.64840   0.65293
 Alpha virt. eigenvalues --    0.65894   0.66534   0.66674   0.67126   0.67412
 Alpha virt. eigenvalues --    0.67596   0.68356   0.68683   0.69618   0.69983
 Alpha virt. eigenvalues --    0.70323   0.70796   0.71468   0.71711   0.72263
 Alpha virt. eigenvalues --    0.72975   0.73500   0.73979   0.74440   0.75082
 Alpha virt. eigenvalues --    0.75493   0.75955   0.76414   0.76692   0.77511
 Alpha virt. eigenvalues --    0.77931   0.78329   0.78987   0.79935   0.80865
 Alpha virt. eigenvalues --    0.81043   0.81381   0.82246   0.83036   0.83383
 Alpha virt. eigenvalues --    0.84134   0.84869   0.85096   0.85433   0.86411
 Alpha virt. eigenvalues --    0.87051   0.87929   0.88060   0.88177   0.88596
 Alpha virt. eigenvalues --    0.89236   0.89858   0.90270   0.90364   0.90565
 Alpha virt. eigenvalues --    0.91069   0.91478   0.92211   0.92680   0.92714
 Alpha virt. eigenvalues --    0.92929   0.93467   0.93860   0.94276   0.94732
 Alpha virt. eigenvalues --    0.95180   0.95449   0.96246   0.96552   0.96587
 Alpha virt. eigenvalues --    0.96798   0.96996   0.97087   0.97554   0.97922
 Alpha virt. eigenvalues --    0.98384   0.98892   0.99158   0.99549   0.99897
 Alpha virt. eigenvalues --    1.00133   1.00466   1.01622   1.01711   1.01967
 Alpha virt. eigenvalues --    1.02583   1.02754   1.03387   1.03846   1.04217
 Alpha virt. eigenvalues --    1.04552   1.05300   1.06048   1.06356   1.06851
 Alpha virt. eigenvalues --    1.07969   1.08125   1.08428   1.10262   1.10984
 Alpha virt. eigenvalues --    1.11529   1.12418   1.12603   1.13748   1.14034
 Alpha virt. eigenvalues --    1.15131   1.15496   1.16405   1.17362   1.17732
 Alpha virt. eigenvalues --    1.18483   1.19082   1.19599   1.20815   1.21642
 Alpha virt. eigenvalues --    1.22214   1.23131   1.23725   1.24259   1.25267
 Alpha virt. eigenvalues --    1.26077   1.26887   1.27196   1.28062   1.28629
 Alpha virt. eigenvalues --    1.30255   1.30540   1.30812   1.31391   1.33091
 Alpha virt. eigenvalues --    1.33814   1.34415   1.35014   1.35642   1.36454
 Alpha virt. eigenvalues --    1.36901   1.38217   1.39191   1.39635   1.40524
 Alpha virt. eigenvalues --    1.41124   1.41767   1.43178   1.43394   1.44599
 Alpha virt. eigenvalues --    1.45680   1.46233   1.47441   1.48112   1.49252
 Alpha virt. eigenvalues --    1.49488   1.50257   1.50938   1.51485   1.51749
 Alpha virt. eigenvalues --    1.52263   1.53003   1.54311   1.54681   1.55303
 Alpha virt. eigenvalues --    1.55594   1.56304   1.57192   1.58040   1.58415
 Alpha virt. eigenvalues --    1.59836   1.60113   1.60632   1.61772   1.63389
 Alpha virt. eigenvalues --    1.66676   1.67677   1.69732   1.71054   1.71553
 Alpha virt. eigenvalues --    1.72658   1.73734   1.74659   1.75737   1.77025
 Alpha virt. eigenvalues --    1.77868   1.78718   1.79229   1.80111   1.81428
 Alpha virt. eigenvalues --    1.81587   1.82293   1.82880   1.84486   1.84723
 Alpha virt. eigenvalues --    1.85514   1.86405   1.86690   1.87399   1.87800
 Alpha virt. eigenvalues --    1.88717   1.89371   1.90281   1.91262   1.91790
 Alpha virt. eigenvalues --    1.92144   1.92528   1.92594   1.93151   1.93582
 Alpha virt. eigenvalues --    1.94265   1.94478   1.95137   1.95821   1.96418
 Alpha virt. eigenvalues --    1.96841   1.97695   1.98538   1.98902   1.99690
 Alpha virt. eigenvalues --    2.00092   2.00882   2.01631   2.02655   2.02876
 Alpha virt. eigenvalues --    2.03432   2.03725   2.03923   2.05090   2.05208
 Alpha virt. eigenvalues --    2.05700   2.06206   2.06935   2.07158   2.07516
 Alpha virt. eigenvalues --    2.08710   2.09064   2.09758   2.10637   2.11275
 Alpha virt. eigenvalues --    2.11835   2.12544   2.12995   2.13904   2.14317
 Alpha virt. eigenvalues --    2.14869   2.15440   2.16121   2.16389   2.17249
 Alpha virt. eigenvalues --    2.18164   2.18735   2.19595   2.20524   2.21022
 Alpha virt. eigenvalues --    2.21633   2.21930   2.22929   2.23955   2.24200
 Alpha virt. eigenvalues --    2.25070   2.25306   2.25578   2.27176   2.28192
 Alpha virt. eigenvalues --    2.28787   2.29329   2.30165   2.30986   2.31960
 Alpha virt. eigenvalues --    2.32049   2.32429   2.32944   2.34523   2.35325
 Alpha virt. eigenvalues --    2.35610   2.36394   2.36993   2.38143   2.38388
 Alpha virt. eigenvalues --    2.39289   2.39708   2.39961   2.41590   2.42128
 Alpha virt. eigenvalues --    2.42929   2.43691   2.44472   2.45008   2.46666
 Alpha virt. eigenvalues --    2.48376   2.50362   2.51011   2.51311   2.52123
 Alpha virt. eigenvalues --    2.53430   2.54194   2.54560   2.56007   2.56276
 Alpha virt. eigenvalues --    2.58992   2.60177   2.61413   2.62169   2.63264
 Alpha virt. eigenvalues --    2.63584   2.65359   2.65722   2.66715   2.68031
 Alpha virt. eigenvalues --    2.68545   2.68841   2.69800   2.70588   2.71290
 Alpha virt. eigenvalues --    2.72808   2.73629   2.74419   2.76241   2.76632
 Alpha virt. eigenvalues --    2.76808   2.77779   2.79490   2.79543   2.80300
 Alpha virt. eigenvalues --    2.83614   2.84002   2.86081   2.87166   2.89025
 Alpha virt. eigenvalues --    2.92434   2.93548   2.94204   2.95762   2.97107
 Alpha virt. eigenvalues --    2.99111   2.99808   3.01424   3.02293   3.10525
 Alpha virt. eigenvalues --    3.17403   3.19646   3.23795   3.42667   3.43223
 Alpha virt. eigenvalues --    3.96172   4.00316   4.07262   4.10142   4.12184
 Alpha virt. eigenvalues --    4.13952   4.15461   4.17464   4.17789   4.19828
 Alpha virt. eigenvalues --    4.21984   4.24608   4.24716   4.26056   4.26684
 Alpha virt. eigenvalues --    4.29769   4.31006   4.32321   4.34837   4.35557
 Alpha virt. eigenvalues --    4.36735   4.37903   4.38629   4.41762   4.43684
 Alpha virt. eigenvalues --    4.46694   4.49481   4.50940   4.58265   4.58617
 Alpha virt. eigenvalues --    4.62134   4.63813   4.65754   4.75070   4.75384
 Alpha virt. eigenvalues --    4.78341
          Condensed to atoms (all electrons):
 Mulliken charges:
               1
     1  C   -0.304024
     2  C   -0.304219
     3  C   -0.309850
     4  C   -0.073606
     5  C    0.061785
     6  C   -0.305499
     7  H    0.165758
     8  H    0.160892
     9  H    0.159239
    10  H    0.146886
    11  H    0.156628
    12  H    0.213293
    13  H    0.141320
    14  H    0.180232
    15  H    0.148252
    16  H    0.151638
    17  N   -0.424741
    18  C    0.100716
    19  C    0.084713
    20  C   -0.228193
    21  H    0.206009
    22  C   -0.227287
    23  H    0.263924
    24  C    0.428836
    25  H    0.188322
    26  H    0.206640
    27  N   -0.529900
    28  C   -0.156262
    29  H    0.178441
    30  H    0.198757
    31  C   -0.147488
    32  H    0.169459
    33  H    0.196781
    34  N   -0.754745
    35  S    1.248793
    36  O   -0.646971
    37  O   -0.671254
    38  C    0.048711
    39  C   -0.176931
    40  C   -0.187029
    41  C   -0.170277
    42  C   -0.162747
    43  C   -0.196919
    44  H    0.200058
    45  H    0.140043
    46  H    0.156508
    47  H    0.161726
    48  H    0.155925
    49  O   -0.708644
    50  H    0.479305
    51  C    0.640900
    52  O   -0.524116
    53  O   -0.642705
    54  H    0.485517
    55  C   -0.366341
    56  H    0.199210
    57  H    0.163882
    58  C   -0.070268
    59  H    0.129263
    60  H    0.162994
    61  C   -0.654928
    62  H    0.217667
    63  H    0.188285
    64  H    0.208379
    65  C   -0.286791
    66  H    0.142698
    67  H    0.169905
    68  C   -0.480596
    69  H    0.158168
    70  H    0.158888
    71  H    0.149196
    72  C   -0.337541
    73  H    0.183755
    74  H    0.170119
    75  C   -0.335559
    76  H    0.183564
    77  H    0.173446
 Sum of Mulliken charges =  -0.00000
 Mulliken charges with hydrogens summed into heavy atoms:
               1
     1  C   -0.000510
     2  C    0.015912
     3  C    0.007546
     4  C    0.139687
     5  C    0.203105
     6  C    0.022986
    17  N   -0.424741
    18  C    0.306726
    19  C    0.348637
    20  C   -0.039872
    22  C   -0.020646
    24  C    0.428836
    27  N   -0.529900
    28  C    0.220936
    31  C    0.218753
    34  N   -0.754745
    35  S    1.248793
    36  O   -0.646971
    37  O   -0.671254
    38  C    0.048711
    39  C    0.023127
    40  C   -0.046986
    41  C   -0.013769
    42  C   -0.001021
    43  C   -0.040994
    49  O   -0.229339
    51  C    0.640900
    52  O   -0.524116
    53  O   -0.157187
    55  C   -0.003249
    58  C    0.221990
    61  C   -0.040596
    65  C    0.025813
    68  C   -0.014344
    72  C    0.016333
    75  C    0.021452
 Electronic spatial extent (au):  <R**2>=          15165.1485
 Charge=             -0.0000 electrons
 Dipole moment (field-independent basis, Debye):
    X=              1.5949    Y=             -0.4225    Z=             -6.4704  Tot=              6.6775
 Quadrupole moment (field-independent basis, Debye-Ang):
   XX=           -197.4660   YY=           -224.1106   ZZ=           -221.3465
   XY=            -12.2917   XZ=             -1.7132   YZ=             12.1547
 Traceless Quadrupole moment (field-independent basis, Debye-Ang):
   XX=             16.8417   YY=             -9.8029   ZZ=             -7.0388
   XY=            -12.2917   XZ=             -1.7132   YZ=             12.1547
 Octapole moment (field-independent basis, Debye-Ang**2):
  XXX=             78.5378  YYY=            -30.0733  ZZZ=              2.9260  XYY=             21.9391
  XXY=            -13.6886  XXZ=            -23.8490  XZZ=             -7.5406  YZZ=             19.6493
  YYZ=              7.0007  XYZ=            -16.0220
 Hexadecapole moment (field-independent basis, Debye-Ang**3):
 XXXX=         -10064.3824 YYYY=          -5807.0580 ZZZZ=          -3914.3897 XXXY=           -180.6576
 XXXZ=            -21.2275 YYYX=           -104.0301 YYYZ=             93.6981 ZZZX=            -83.8994
 ZZZY=              0.0873 XXYY=          -2654.6892 XXZZ=          -2389.8680 YYZZ=          -1746.3756
 XXYZ=             43.5926 YYXZ=             56.8253 ZZXY=            -38.4781
 N-N= 4.877861370467D+03 E-N=-1.440824623811D+04  KE= 1.976459942570D+03
 No NMR shielding tensors so no spin-rotation constants.
 Leave Link  601 at Fri Feb  8 01:48:37 2019, MaxMem=   104857600 cpu:              27.3 elap:               1.3
 (Enter /home/xinyan/g16/l701.exe)
 ... and contract with generalized density number  0.
 Compute integral first derivatives.
 R6Disp: Adding Grimme-D3 dispersion energy 1st derivatives to the gradient.
 Leave Link  701 at Fri Feb  8 01:48:38 2019, MaxMem=   104857600 cpu:              24.0 elap:               1.1
 (Enter /home/xinyan/g16/l702.exe)
 L702 exits ... SP integral derivatives will be done elsewhere.
 Leave Link  702 at Fri Feb  8 01:48:38 2019, MaxMem=   104857600 cpu:               1.4 elap:               0.1
 (Enter /home/xinyan/g16/l703.exe)
 Integral derivatives from FoFJK, PRISM(SPDF).
 Compute integral first derivatives, UseDBF=F ICtDFT=           0.
 Calling FoFJK, ICntrl=      2127 FMM=T ISym2X=0 I1Cent= 0 IOpClX= 0 NMat=1 NMatS=1 NMatT=0.
 FoFJK:  IHMeth= 1 ICntrl=    2127 DoSepK=F KAlg= 0 I1Cent=           0 FoldK=F
 IRaf=         0 NMat=       1 IRICut=       1 DoRegI=T DoRafI=F ISym2E= 0 IDoP0=0 IntGTp=1.
 FoFCou: FMM=T IPFlag=           0 FMFlag=      100000 FMFlg1=        2001
         NFxFlg=           0 DoJE=F BraDBF=F KetDBF=F FulRan=T
         wScrn=  0.000000 ICntrl=      2127 IOpCl=  0 I1Cent=           0 NGrid=           0
         NMat0=    1 NMatS0=      1 NMatT0=    0 NMatD0=    1 NMtDS0=    0 NMtDT0=    0
 Symmetry not used in FoFCou.
 FMM levels:  10  Number of levels for PrismC:   9
 Leave Link  703 at Fri Feb  8 01:49:10 2019, MaxMem=   104857600 cpu:             751.8 elap:              31.4
 (Enter /home/xinyan/g16/l716.exe)
 Dipole        = 6.27469749D-01-1.66220695D-01-2.54566388D+00
 ***** Axes restored to original set *****
 -------------------------------------------------------------------
 Center     Atomic                   Forces (Hartrees/Bohr)
 Number     Number              X              Y              Z
 -------------------------------------------------------------------
      1        6          -0.000002903   -0.000096931   -0.000105566
      2        6           0.000066986    0.000004200    0.000112277
      3        6           0.000018885   -0.000035361    0.000008393
      4        6           0.000008038    0.000148490    0.000169116
      5        6          -0.000070238    0.000026754   -0.000068327
      6        6           0.000035357    0.000091463    0.000153826
      7        1          -0.000007987    0.000038677    0.000023270
      8        1           0.000012604    0.000020476    0.000035917
      9        1          -0.000003529    0.000047505    0.000060241
     10        1           0.000007573    0.000038939    0.000045499
     11        1           0.000012361    0.000028009    0.000069355
     12        1           0.000047333   -0.000033691    0.000110225
     13        1          -0.000032488   -0.000167523    0.000153726
     14        1           0.000019365    0.000022381    0.000031039
     15        1           0.000037915    0.000017690    0.000049840
     16        1          -0.000044402    0.000043040    0.000028882
     17        7          -0.000021691   -0.000052983    0.000069565
     18        6          -0.000003704    0.000044945   -0.000003858
     19        6           0.000025386    0.000026493   -0.000038377
     20        6           0.000019893    0.000028964    0.000008578
     21        1           0.000021807    0.000091264    0.000050588
     22        6          -0.000002514   -0.000034870   -0.000003669
     23        1           0.000017668    0.000021120    0.000028506
     24        6           0.000004873   -0.000063529   -0.000038024
     25        1          -0.000001876    0.000057398    0.000026784
     26        1           0.000017954    0.000009343   -0.000006084
     27        7           0.000012344    0.000064117   -0.000004314
     28        6           0.000023373   -0.000073729   -0.000078970
     29        1          -0.000004908   -0.000037390   -0.000099433
     30        1           0.000041509   -0.000076113   -0.000037126
     31        6           0.000033271    0.000025666   -0.000017078
     32        1          -0.000024728    0.000029125   -0.000040709
     33        1          -0.000004021    0.000038468    0.000021836
     34        7           0.000188915    0.000098562   -0.000060616
     35       16          -0.000088592    0.000030954   -0.000015736
     36        8           0.000039466    0.000101503    0.000003172
     37        8           0.000064501   -0.000056576    0.000027361
     38        6          -0.000030596   -0.000000621   -0.000060644
     39        6          -0.000005716    0.000093997    0.000045146
     40        6           0.000018479   -0.000003157   -0.000075079
     41        6           0.000028130    0.000039418   -0.000123457
     42        6           0.000030811   -0.000057404   -0.000219903
     43        6           0.000002157   -0.000054727   -0.000088903
     44        1          -0.000053073    0.000060143   -0.000035637
     45        1           0.000147958    0.000031335   -0.000030593
     46        1           0.000140879   -0.000021962   -0.000132215
     47        1          -0.000021912   -0.000054760   -0.000222555
     48        1          -0.000174217   -0.000048618   -0.000132158
     49        8          -0.000175490   -0.000185934   -0.000137124
     50        1           0.000200250    0.000385861    0.000032774
     51        6           0.000072542   -0.000030361   -0.000012656
     52        8          -0.000176210    0.000062517    0.000138448
     53        8          -0.000066451    0.000061166    0.000149299
     54        1          -0.000026693    0.000049316    0.000059531
     55        6          -0.000026742    0.000050266    0.000032556
     56        1           0.000051462    0.000000086    0.000066032
     57        1           0.000036202   -0.000035638    0.000020474
     58        6          -0.000468652   -0.000424193    0.000064706
     59        1           0.000041978   -0.000207048   -0.000248101
     60        1          -0.000290351    0.000252770    0.000134136
     61        6           0.000064003   -0.000004102    0.000043483
     62        1          -0.000003055   -0.000028001    0.000036142
     63        1           0.000012945    0.000008977    0.000046570
     64        1           0.000005833   -0.000026576    0.000042291
     65        6          -0.000040730   -0.000002830    0.000060172
     66        1          -0.000021912    0.000012466    0.000043106
     67        1           0.000003788    0.000048856    0.000116416
     68        6           0.000008086   -0.000029402    0.000082065
     69        1           0.000006686    0.000057668    0.000012167
     70        1           0.000062288   -0.000007613    0.000096858
     71        1           0.000078079   -0.000056387    0.000008047
     72        6           0.000021905   -0.000024284   -0.000099037
     73        1           0.000043821   -0.000117937   -0.000121782
     74        1          -0.000039819   -0.000060611   -0.000145753
     75        6           0.000024073   -0.000079492    0.000002993
     76        1           0.000037207   -0.000095347   -0.000049796
     77        1           0.000018262   -0.000024686   -0.000068130
 -------------------------------------------------------------------
 Cartesian Forces:  Max     0.000468652 RMS     0.000090545
 Z-matrix is all fixed cartesians, so copy forces.
 Leave Link  716 at Fri Feb  8 01:49:10 2019, MaxMem=   104857600 cpu:               2.4 elap:               0.1
 (Enter /home/xinyan/g16/l103.exe)

 GradGradGradGradGradGradGradGradGradGradGradGradGradGradGradGradGradGrad
 Berny optimization.
 Search for a local minimum.
 Step number   1 out of a maximum of    2
 All quantities printed in internal units (Hartrees-Bohrs-Radians)
 Second derivative matrix not updated -- first step.
 ITU=  0
     Eigenvalues ---   -0.00000  -0.00000  -0.00000   0.00000   0.00000
     Eigenvalues ---    0.00000   0.00000   0.00000   0.00000   0.00000
     Eigenvalues ---    0.00000   0.00000   0.00014   0.00018   0.00033
     Eigenvalues ---    0.00063   0.00116   0.00133   0.00162   0.00181
     Eigenvalues ---    0.00204   0.00218   0.00275   0.00284   0.00394
     Eigenvalues ---    0.00448   0.00511   0.00513   0.00590   0.00597
     Eigenvalues ---    0.00668   0.00676   0.00776   0.00976   0.01024
     Eigenvalues ---    0.01234   0.01645   0.01725   0.01796   0.01828
     Eigenvalues ---    0.01889   0.02011   0.02220   0.02389   0.02519
     Eigenvalues ---    0.02606   0.02701   0.02804   0.03096   0.03526
     Eigenvalues ---    0.03538   0.03574   0.03633   0.03683   0.04083
     Eigenvalues ---    0.04167   0.04219   0.04304   0.04457   0.04802
     Eigenvalues ---    0.04861   0.04880   0.05002   0.05046   0.05059
     Eigenvalues ---    0.05103   0.05134   0.05170   0.05301   0.05349
     Eigenvalues ---    0.05495   0.05594   0.05669   0.05697   0.05746
     Eigenvalues ---    0.05767   0.05794   0.06149   0.06273   0.06382
     Eigenvalues ---    0.06437   0.06512   0.06844   0.06964   0.07017
     Eigenvalues ---    0.07116   0.07189   0.07240   0.07296   0.07348
     Eigenvalues ---    0.07552   0.07882   0.07934   0.08018   0.08127
     Eigenvalues ---    0.08185   0.08568   0.08704   0.09128   0.09664
     Eigenvalues ---    0.09742   0.10004   0.10106   0.10144   0.10210
     Eigenvalues ---    0.11211   0.11411   0.11587   0.11917   0.12418
     Eigenvalues ---    0.12903   0.12979   0.13008   0.13053   0.13299
     Eigenvalues ---    0.13723   0.13791   0.13945   0.14182   0.14356
     Eigenvalues ---    0.15833   0.16357   0.16553   0.16614   0.16742
     Eigenvalues ---    0.16918   0.17212   0.17337   0.17624   0.17711
     Eigenvalues ---    0.18607   0.19037   0.20323   0.20666   0.20759
     Eigenvalues ---    0.21104   0.21805   0.22012   0.23206   0.24755
     Eigenvalues ---    0.26468   0.27621   0.29653   0.29827   0.30079
     Eigenvalues ---    0.30266   0.31621   0.32523   0.34303   0.34857
     Eigenvalues ---    0.35043   0.36664   0.39321   0.41744   0.42386
     Eigenvalues ---    0.43953   0.44989   0.45112   0.48438   0.49334
     Eigenvalues ---    0.50310   0.56061   0.57282   0.59203   0.62503
     Eigenvalues ---    0.65020   0.65810   0.68021   0.68315   0.69300
     Eigenvalues ---    0.70685   0.75509   0.77821   0.78434   0.79660
     Eigenvalues ---    0.82287   0.83035   0.83976   0.85905   0.87076
     Eigenvalues ---    0.89023   0.89444   0.90573   0.91147   0.92307
     Eigenvalues ---    0.93311   0.94046   0.94473   0.95447   0.96005
     Eigenvalues ---    0.96384   0.97486   0.99819   1.00029   1.00307
     Eigenvalues ---    1.01183   1.01965   1.04075   1.04492   1.05566
     Eigenvalues ---    1.05994   1.06215   1.06495   1.07807   1.08806
     Eigenvalues ---    1.09899   1.14221   1.16490   1.17160   1.20098
     Eigenvalues ---    1.22994   1.24004   1.28215   1.37088   1.40334
     Eigenvalues ---    1.48439   1.54151   1.57217   1.59468   1.60480
     Eigenvalues ---    1.71259   1.75784   1.81844   2.11337   2.28426
 Eigenvalue     1 is  -9.99D-16 should be greater than     0.000000 Eigenvector:
                          Y57       Y71       Y56       Y70       Y53
   1                    0.17344   0.17344   0.17344   0.17344   0.17344
                          Y55       Y68       Y54       Y51       Y65
   1                    0.17344   0.17344   0.17344   0.17344   0.17344
 Eigenvalue     2 is  -2.22D-16 should be greater than     0.000000 Eigenvector:
                          Y46       Y45       Y41       Y47       Y40
   1                    0.14806   0.14806   0.14806   0.14806   0.14806
                          Y42       Y39       Y43       Y44       Y38
   1                    0.14806   0.14806   0.14806   0.14806   0.14806
 Eigenvalue     3 is  -1.11D-16 should be greater than     0.000000 Eigenvector:
                          X52       X66       X54       X51       X53
   1                    0.15270   0.15270   0.15270   0.15270   0.15270
                          X65       X67       X57       X55       X69
   1                    0.15270   0.15270   0.15270   0.15270   0.15270
 Eigenvalue     4 is   2.49D-09 Eigenvector:
                          Z44       Z50       Z49       Z45       X59
   1                    0.28276   0.25576   0.25488   0.23154  -0.21929
                          Z39       X60       X49       X58       Z40
   1                    0.20156  -0.19106  -0.18524  -0.17408   0.17251
 Eigenvalue     5 is   6.96D-09 Eigenvector:
                          X46       Z47       X45       Z48       X41
   1                    0.23535  -0.23265   0.22014  -0.19403   0.18478
                          X40       Z42       Z43       X47       Z46
   1                    0.17600  -0.17027  -0.14852   0.13404  -0.12870
 Eigenvalue     6 is   1.11D-08 Eigenvector:
                          Z54       Z53       Z52       Z69       Z51
   1                    0.44692   0.33135   0.31144  -0.26707   0.24971
                          Z71       Z70       Z68       Y66       Y69
   1                   -0.24503  -0.23503  -0.20236  -0.16092  -0.13525
 Eigenvalue     7 is   2.20D-08 Eigenvector:
                          X54       X69       X53       Y54       X70
   1                    0.39266  -0.32990   0.32202  -0.27695  -0.25077
                          Y71       X68       X51       X52       Y53
   1                    0.23398  -0.21721   0.20335   0.20252  -0.19776
 Eigenvalue     8 is   4.28D-08 Eigenvector:
                          Y47       X50       Y49       Y44       X49
   1                    0.36001  -0.34298  -0.26268  -0.26127  -0.24035
                          Y60       Y42       Y46       X47       Y48
   1                   -0.23090   0.22238   0.20908   0.20529   0.19663
 Eigenvalue     9 is   8.79D-08 Eigenvector:
                          Y45       Y59       Y46       Y40       X45
   1                    0.29620  -0.22637   0.20775   0.19285   0.18250
                          Y48       Z69       Z70       Y44       Y41
   1                   -0.17365  -0.15349  -0.15012   0.14496   0.14344
 Eigenvalue    10 is   1.15D-07 Eigenvector:
                          X60       X59       Y48       Y59       X48
   1                    0.22485   0.19618   0.19199   0.17953   0.17920
                          Y45       X58       X45       Y73       Y47
   1                   -0.17320   0.15584  -0.15471   0.14014   0.13094
 Eigenvalue    11 is   1.74D-07 Eigenvector:
                          Y64       Y62       Y61       Y63       Y37
   1                    0.24988   0.21017   0.20238   0.18866   0.15261
                          Y45       Y46       Z76       Z60       Y7
   1                    0.14983   0.14741  -0.14640   0.14563  -0.14404
 Eigenvalue    12 is   4.02D-06 Eigenvector:
                          X52       X66       X56       Z67       Z57
   1                    0.34308   0.33059  -0.31010  -0.30363   0.30267
                          X70       Z71       Y52       Y67       Y57
   1                   -0.28119   0.24353  -0.20124  -0.19416   0.18525
 Quadratic step=8.156D+00 exceeds max=3.000D-01 adjusted using Lamda=-2.768D-03.
 Angle between NR and scaled steps=  14.37 degrees.
 Angle between quadratic step and forces=  49.04 degrees.
 Linear search not attempted -- first point.
 B after Tr=    -0.000448    0.000890    0.000113
         Rot=    1.000000    0.000170    0.000030   -0.000030 Ang=   0.02 deg.
 Variable       Old X    -DE/DX   Delta X   Delta X   Delta X     New X
                                 (Linear)    (Quad)   (Total)
    X1       -9.33891  -0.00000   0.00000   0.00535   0.00490  -9.33402
    Y1        0.48035  -0.00010   0.00000   0.00594   0.00614   0.48648
    Z1       -0.43337  -0.00011   0.00000   0.01791   0.01729  -0.41608
    X2       -9.60153   0.00007   0.00000   0.00307   0.00286  -9.59867
    Y2       -1.88702   0.00000   0.00000   0.00569   0.00531  -1.88171
    Z2       -2.07811   0.00011   0.00000   0.01908   0.01925  -2.05886
    X3       -7.04800   0.00002   0.00000   0.00133   0.00123  -7.04676
    Y3       -2.63226  -0.00004   0.00000   0.00633   0.00571  -2.62655
    Z3       -3.22729   0.00001   0.00000   0.01549   0.01607  -3.21122
    X4       -5.16782   0.00001   0.00000   0.00449   0.00429  -5.16352
    Y4       -3.08105   0.00015   0.00000   0.00641   0.00663  -3.07442
    Z4       -1.08967   0.00017   0.00000   0.01300   0.01385  -1.07582
    X5       -4.78789  -0.00007   0.00000   0.00651   0.00607  -4.78181
    Y5       -0.64940   0.00003   0.00000   0.00596   0.00675  -0.64266
    Z5        0.51408  -0.00007   0.00000   0.01256   0.01260   0.52668
    X6       -7.35047   0.00004   0.00000   0.00807   0.00752  -7.34295
    Y6        0.12230   0.00009   0.00000   0.00685   0.00787   0.13017
    Z6        1.63904   0.00015   0.00000   0.01582   0.01545   1.65448
    X7       -7.22155  -0.00001   0.00000  -0.00002   0.00005  -7.22150
    Y7       -4.32541   0.00004   0.00000   0.00692   0.00589  -4.31953
    Z7       -4.40750   0.00002   0.00000   0.01486   0.01601  -4.39150
    X8      -10.31405   0.00001   0.00000   0.00464   0.00445 -10.30960
    Y8       -3.45907   0.00002   0.00000   0.00565   0.00562  -3.45345
    Z8       -0.92659   0.00004   0.00000   0.01990   0.02056  -0.90603
    X9      -10.97816  -0.00000   0.00000   0.00101   0.00087 -10.97729
    Y9       -1.57284   0.00005   0.00000   0.00605   0.00508  -1.56776
    Z9       -3.59050   0.00006   0.00000   0.02100   0.02098  -3.56952
   X10       -8.77156   0.00001   0.00000   0.00365   0.00317  -8.76839
   Y10        2.07568   0.00004   0.00000   0.00576   0.00558   2.08126
   Z10       -1.63629   0.00005   0.00000   0.01677   0.01565  -1.62065
   X11      -11.16896   0.00001   0.00000   0.00646   0.00592 -11.16304
   Y11        0.96990   0.00003   0.00000   0.00625   0.00662   0.97652
   Z11        0.40045   0.00007   0.00000   0.02024   0.01935   0.41980
   X12       -5.87204   0.00005   0.00000   0.00778   0.00759  -5.86445
   Y12       -4.58366  -0.00003   0.00000   0.00539   0.00598  -4.57768
   Z12        0.14037   0.00011   0.00000   0.01397   0.01528   0.15565
   X13       -4.27316  -0.00003   0.00000   0.00516   0.00472  -4.26845
   Y13        0.82757  -0.00017   0.00000   0.00504   0.00539   0.83296
   Z13       -0.85480   0.00015   0.00000   0.01205   0.01162  -0.84318
   X14       -7.96523   0.00002   0.00000   0.00952   0.00897  -7.95626
   Y14       -1.32606   0.00002   0.00000   0.00724   0.00868  -1.31738
   Z14        2.99004   0.00003   0.00000   0.01685   0.01693   3.00697
   X15       -7.07462   0.00004   0.00000   0.00971   0.00899  -7.06564
   Y15        1.89031   0.00002   0.00000   0.00708   0.00847   1.89878
   Z15        2.68562   0.00005   0.00000   0.01501   0.01405   2.69967
   X16       -6.40591  -0.00004   0.00000  -0.00142  -0.00154  -6.40744
   Y16       -1.07253   0.00004   0.00000   0.00716   0.00617  -1.06637
   Z16       -4.43857   0.00003   0.00000   0.01503   0.01512  -4.42345
   X17       -2.65036  -0.00002   0.00000   0.00300   0.00290  -2.64746
   Y17       -3.94112  -0.00005   0.00000   0.00786   0.00793  -3.93319
   Z17       -1.95987   0.00007   0.00000   0.00716   0.00845  -1.95142
   X18       -1.40191  -0.00000   0.00000   0.00098   0.00092  -1.40099
   Y18       -2.67712   0.00004   0.00000   0.01353   0.01305  -2.66407
   Z18       -3.79763  -0.00000   0.00000   0.00955   0.01049  -3.78714
   X19       -1.33830   0.00003   0.00000   0.00447   0.00437  -1.33393
   Y19       -5.53206   0.00003   0.00000   0.00186   0.00252  -5.52954
   Z19       -0.44554  -0.00004   0.00000  -0.00044   0.00147  -0.44407
   X20        1.14028   0.00002   0.00000  -0.00006  -0.00009   1.14019
   Y20       -2.93066   0.00003   0.00000   0.01180   0.01134  -2.91932
   Z20       -4.15761   0.00001   0.00000   0.00353   0.00470  -4.15290
   X21       -2.52577   0.00002   0.00000   0.00060   0.00053  -2.52524
   Y21       -1.40741   0.00009   0.00000   0.01974   0.01881  -1.38861
   Z21       -4.94165   0.00005   0.00000   0.01677   0.01720  -4.92446
   X22        1.20759  -0.00000   0.00000   0.00343   0.00337   1.21096
   Y22       -5.87896  -0.00003   0.00000  -0.00122  -0.00049  -5.87945
   Z22       -0.68582  -0.00000   0.00000  -0.00744  -0.00526  -0.69108
   X23       -2.41594   0.00002   0.00000   0.00662   0.00650  -2.40944
   Y23       -6.43847   0.00002   0.00000  -0.00100   0.00010  -6.43836
   Z23        1.04404   0.00003   0.00000  -0.00058   0.00157   1.04561
   X24        2.58660   0.00000   0.00000   0.00141   0.00137   2.58797
   Y24       -4.44093  -0.00006   0.00000   0.00246   0.00266  -4.43827
   Z24       -2.46987  -0.00004   0.00000  -0.00613  -0.00435  -2.47422
   X25        2.03302  -0.00000   0.00000  -0.00176  -0.00175   2.03127
   Y25       -1.87861   0.00006   0.00000   0.01679   0.01587  -1.86274
   Z25       -5.66667   0.00003   0.00000   0.00600   0.00687  -5.65980
   X26        2.13726   0.00002   0.00000   0.00481   0.00475   2.14201
   Y26       -7.09987   0.00001   0.00000  -0.00644  -0.00520  -7.10507
   Z26        0.66254  -0.00001   0.00000  -0.01310  -0.01045   0.65209
   X27        5.11734   0.00001   0.00000   0.00113   0.00110   5.11844
   Y27       -4.47893   0.00006   0.00000  -0.00234  -0.00202  -4.48095
   Z27       -2.53308  -0.00000   0.00000  -0.01404  -0.01210  -2.54518
   X28        6.56544   0.00002   0.00000   0.00579   0.00571   6.57115
   Y28       -5.64726  -0.00007   0.00000  -0.01810  -0.01699  -5.66425
   Z28       -0.47636  -0.00008   0.00000  -0.02631  -0.02388  -0.50024
   X29        6.27416  -0.00000   0.00000  -0.00073  -0.00069   6.27346
   Y29       -7.69398  -0.00004   0.00000  -0.01730  -0.01620  -7.71018
   Z29       -0.44624  -0.00010   0.00000  -0.03654  -0.03343  -0.47967
   X30        5.93489   0.00004   0.00000   0.01621   0.01597   5.95086
   Y30       -4.84694  -0.00008   0.00000  -0.02617  -0.02448  -4.87142
   Z30        1.33352  -0.00004   0.00000  -0.01908  -0.01695   1.31657
   X31        6.58794   0.00003   0.00000   0.00135   0.00129   6.58923
   Y31       -2.50933   0.00003   0.00000   0.00135   0.00133  -2.50800
   Z31       -3.82944  -0.00002   0.00000  -0.00828  -0.00691  -3.83635
   X32        6.99476  -0.00002   0.00000  -0.00842  -0.00833   6.98643
   Y32       -3.08708   0.00003   0.00000   0.01199   0.01133  -3.07575
   Z32       -5.77842  -0.00004   0.00000  -0.01349  -0.01191  -5.79033
   X33        5.52620  -0.00000   0.00000   0.00640   0.00622   5.53242
   Y33       -0.73743   0.00004   0.00000   0.00453   0.00445  -0.73298
   Z33       -3.83469   0.00002   0.00000   0.00697   0.00767  -3.82702
   X34       -2.66164   0.00019   0.00000   0.00896   0.00842  -2.65322
   Y34       -0.78777   0.00010   0.00000   0.00475   0.00624  -0.78153
   Z34        2.23481  -0.00006   0.00000   0.00945   0.00967   2.24448
   X35       -2.74107  -0.00009   0.00000   0.00751   0.00694  -2.73412
   Y35       -2.64471   0.00003   0.00000   0.00126   0.00354  -2.64117
   Z35        4.56906  -0.00002   0.00000   0.00661   0.00745   4.57651
   X36       -4.77558   0.00004   0.00000   0.00468   0.00423  -4.77135
   Y36       -4.55980   0.00010   0.00000   0.00463   0.00675  -4.55305
   Z36        4.44407   0.00000   0.00000   0.00301   0.00438   4.44845
   X37       -0.17656   0.00006   0.00000   0.00596   0.00543  -0.17113
   Y37       -3.72051  -0.00006   0.00000  -0.00361  -0.00103  -3.72154
   Z37        4.99500   0.00003   0.00000   0.00419   0.00556   5.00056
   X38       -2.01713  -0.00003   0.00000  -0.02777  -0.02853  -2.04566
   Y38        5.12804  -0.00000   0.00000  -0.00651  -0.00574   5.12230
   Z38        0.03526  -0.00006   0.00000  -0.01879  -0.02055   0.01472
   X39       -0.65118  -0.00001   0.00000   0.00051  -0.00006  -0.65124
   Y39        3.84278   0.00009   0.00000   0.01057   0.01079   3.85357
   Z39       -1.82542   0.00005   0.00000  -0.00966  -0.01089  -1.83631
   X40       -1.56569   0.00002   0.00000   0.02644   0.02603  -1.53966
   Y40        3.74179  -0.00000   0.00000   0.01247   0.01181   3.75360
   Z40       -4.29317  -0.00008   0.00000  -0.01940  -0.02066  -4.31383
   X41       -3.86869   0.00003   0.00000   0.02602   0.02558  -3.84311
   Y41        4.85794   0.00004   0.00000   0.00007  -0.00095   4.85699
   Z41       -4.92104  -0.00012   0.00000  -0.03972  -0.04149  -4.96252
   X42       -5.24998   0.00003   0.00000  -0.00111  -0.00173  -5.25171
   Y42        6.11064  -0.00006   0.00000  -0.01510  -0.01558   6.09506
   Z42       -3.06052  -0.00022   0.00000  -0.04978  -0.05206  -3.11258
   X43       -4.31835   0.00000   0.00000  -0.02835  -0.02913  -4.34748
   Y43        6.24679  -0.00005   0.00000  -0.01917  -0.01875   6.22804
   Z43       -0.60316  -0.00009   0.00000  -0.03903  -0.04129  -0.64446
   X44        1.07359  -0.00005   0.00000   0.00140   0.00086   1.07446
   Y44        2.85090   0.00006   0.00000   0.01977   0.02028   2.87118
   Z44       -1.30378  -0.00004   0.00000   0.00421   0.00341  -1.30037
   X45       -0.47474   0.00015   0.00000   0.04756   0.04730  -0.42744
   Y45        2.77060   0.00003   0.00000   0.02361   0.02252   2.79313
   Z45       -5.73946  -0.00003   0.00000  -0.01103  -0.01190  -5.75135
   X46       -4.58240   0.00014   0.00000   0.04674   0.04643  -4.53597
   Y46        4.75975  -0.00002   0.00000   0.00185   0.00013   4.75987
   Z46       -6.84279  -0.00013   0.00000  -0.04748  -0.04926  -6.89205
   X47       -7.05418  -0.00002   0.00000  -0.00144  -0.00208  -7.05626
   Y47        6.97543  -0.00005   0.00000  -0.02421  -0.02496   6.95047
   Z47       -3.51907  -0.00022   0.00000  -0.06603  -0.06870  -3.58777
   X48       -5.40452  -0.00017   0.00000  -0.05023  -0.05115  -5.45568
   Y48        7.21135  -0.00005   0.00000  -0.03141  -0.03057   7.18077
   Z48        0.85215  -0.00013   0.00000  -0.04708  -0.04974   0.80242
   X49        0.48919  -0.00018   0.00000  -0.02171  -0.02256   0.46664
   Y49        3.20329  -0.00019   0.00000   0.01465   0.01671   3.22001
   Z49        3.36700  -0.00014   0.00000  -0.00984  -0.01079   3.35621
   X50       -0.49252   0.00020   0.00000   0.01396   0.01324  -0.47928
   Y50        1.65825   0.00039   0.00000  -0.00020   0.00163   1.65988
   Z50        2.89141   0.00003   0.00000  -0.03163  -0.03211   2.85930
   X51        4.51236   0.00007   0.00000  -0.01198  -0.01262   4.49975
   Y51        0.38601  -0.00003   0.00000   0.00828   0.01035   0.39637
   Z51        2.68519  -0.00001   0.00000   0.02567   0.02592   2.71111
   X52        3.91217  -0.00018   0.00000  -0.03417  -0.03464   3.87753
   Y52       -0.38242   0.00006   0.00000   0.01802   0.01936  -0.36307
   Z52        0.59659   0.00014   0.00000   0.02850   0.02897   0.62556
   X53        3.88677  -0.00007   0.00000  -0.00472  -0.00542   3.88135
   Y53       -0.75058   0.00006   0.00000   0.00773   0.01049  -0.74009
   Z53        4.81869   0.00015   0.00000   0.02756   0.02816   4.84685
   X54        2.50512  -0.00003   0.00000  -0.01442  -0.01503   2.49009
   Y54       -2.00462   0.00005   0.00000   0.01714   0.01973  -1.98489
   Z54        4.54698   0.00006   0.00000   0.03350   0.03444   4.58142
   X55        6.15299  -0.00003   0.00000   0.00404   0.00325   6.15623
   Y55        2.68335   0.00005   0.00000  -0.00190   0.00042   2.68377
   Z55        3.11002   0.00003   0.00000   0.01961   0.01919   3.12920
   X56        5.38695   0.00005   0.00000   0.02084   0.01989   5.40684
   Y56        3.68763   0.00000   0.00000  -0.00183   0.00100   3.68863
   Z56        4.74540   0.00007   0.00000   0.02741   0.02660   4.77201
   X57        8.05048   0.00004   0.00000   0.00415   0.00336   8.05384
   Y57        2.02261  -0.00004   0.00000  -0.01366  -0.01106   2.01156
   Z57        3.64152   0.00002   0.00000   0.00492   0.00484   3.64636
   X58       -1.04026  -0.00047   0.00000  -0.05785  -0.05878  -1.09904
   Y58        5.26024  -0.00042   0.00000  -0.01172  -0.00997   5.25027
   Z58        2.72519   0.00006   0.00000  -0.00756  -0.00930   2.71589
   X59       -2.66716   0.00004   0.00000  -0.07403  -0.07504  -2.74220
   Y59        5.44903  -0.00021   0.00000  -0.05631  -0.05423   5.39480
   Z59        4.01665  -0.00025   0.00000  -0.02295  -0.02483   3.99182
   X60        0.11250  -0.00029   0.00000  -0.09586  -0.09690   0.01559
   Y60        6.96993   0.00025   0.00000   0.01077   0.01267   6.98260
   Z60        2.95899   0.00013   0.00000   0.02013   0.01788   2.97687
   X61       -3.31152   0.00006   0.00000   0.00969   0.00884  -3.30268
   Y61       -0.75158  -0.00000   0.00000  -0.00384  -0.00066  -0.75224
   Z61        7.31496   0.00004   0.00000   0.01067   0.01084   7.32580
   X62       -1.86873  -0.00000   0.00000   0.01126   0.01032  -1.85841
   Y62        0.72545  -0.00003   0.00000  -0.00560  -0.00232   0.72313
   Z62        7.34467   0.00004   0.00000   0.01393   0.01369   7.35835
   X63       -5.19531   0.00001   0.00000   0.01062   0.00974  -5.18558
   Y63        0.07326   0.00001   0.00000  -0.00122   0.00179   0.07506
   Z63        7.14859   0.00005   0.00000   0.01243   0.01221   7.16080
   X64       -3.18033   0.00001   0.00000   0.00794   0.00707  -3.17327
   Y64       -1.94606  -0.00003   0.00000  -0.00760  -0.00384  -1.94990
   Z64        8.98996   0.00004   0.00000   0.00820   0.00878   8.99874
   X65        6.26949  -0.00004   0.00000  -0.00231  -0.00307   6.26642
   Y65        4.39507  -0.00000   0.00000   0.00378   0.00532   4.40039
   Z65        0.79962   0.00006   0.00000   0.02356   0.02256   0.82217
   X66        6.94556  -0.00002   0.00000  -0.01746  -0.01806   6.92750
   Y66        3.31082   0.00001   0.00000   0.00523   0.00625   3.31707
   Z66       -0.83242   0.00004   0.00000   0.01627   0.01567  -0.81675
   X67        4.34102   0.00000   0.00000  -0.00233  -0.00310   4.33793
   Y67        4.99288   0.00005   0.00000   0.01432   0.01560   5.00848
   Z67        0.34157   0.00012   0.00000   0.03756   0.03623   0.37780
   X68        7.94666   0.00001   0.00000   0.01119   0.01027   7.95692
   Y68        6.69957  -0.00003   0.00000  -0.00524  -0.00345   6.69612
   Z68        1.23223   0.00008   0.00000   0.01978   0.01810   1.25033
   X69        8.00913   0.00001   0.00000   0.00469   0.00380   8.01293
   Y69        7.90992   0.00006   0.00000   0.00070   0.00192   7.91184
   Z69       -0.44197   0.00001   0.00000   0.02357   0.02148  -0.42049
   X70        7.24173   0.00006   0.00000   0.02736   0.02627   7.26800
   Y70        7.83737  -0.00001   0.00000  -0.00771  -0.00543   7.83195
   Z70        2.81027   0.00010   0.00000   0.02889   0.02678   2.83705
   X71        9.88771   0.00008   0.00000   0.01201   0.01109   9.89880
   Y71        6.13906  -0.00006   0.00000  -0.01561  -0.01356   6.12550
   Z71        1.68380   0.00001   0.00000   0.00402   0.00265   1.68645
   X72        9.28980   0.00002   0.00000   0.00550   0.00541   9.29521
   Y72       -4.90862  -0.00002   0.00000  -0.02398  -0.02291  -4.93153
   Z72       -1.06832  -0.00010   0.00000  -0.03479  -0.03244  -1.10076
   X73       10.47475   0.00004   0.00000   0.01384   0.01365  10.48841
   Y73       -4.91771  -0.00012   0.00000  -0.03886  -0.03715  -4.95486
   Z73        0.62060  -0.00012   0.00000  -0.04074  -0.03831   0.58229
   X74       10.10255  -0.00004   0.00000  -0.00620  -0.00612  10.09643
   Y74       -6.22585  -0.00006   0.00000  -0.01830  -0.01766  -6.24351
   Z74       -2.44164  -0.00015   0.00000  -0.04719  -0.04435  -2.48599
   X75        8.99171   0.00002   0.00000   0.00865   0.00847   9.00019
   Y75       -2.27912  -0.00008   0.00000  -0.01580  -0.01514  -2.29426
   Z75       -2.23596   0.00000   0.00000  -0.01688  -0.01545  -2.25141
   X76        8.65901   0.00004   0.00000   0.01873   0.01838   8.67739
   Y76       -0.88632  -0.00010   0.00000  -0.02433  -0.02317  -0.90949
   Z76       -0.74448  -0.00005   0.00000  -0.00683  -0.00588  -0.75036
   X77       10.62296   0.00002   0.00000   0.00568   0.00554  10.62850
   Y77       -1.68480  -0.00002   0.00000  -0.01344  -0.01306  -1.69787
   Z77       -3.35105  -0.00007   0.00000  -0.02004  -0.01870  -3.36976
         Item               Value     Threshold  Converged?
 Maximum Force            0.000469     0.000450     NO 
 RMS     Force            0.000091     0.000300     YES
 Maximum Displacement     0.096902     0.001800     NO 
 RMS     Displacement     0.019722     0.001200     NO 
 Predicted change in Energy=-2.643815D-04
 GradGradGradGradGradGradGradGradGradGradGradGradGradGradGradGradGradGrad

 Leave Link  103 at Fri Feb  8 01:49:11 2019, MaxMem=   104857600 cpu:              19.0 elap:               0.9
 (Enter /home/xinyan/g16/l9999.exe)
 1\1\GINC-TSE4\Force\RM062X\6-31G(d)\C27H41N3O5S1\STEVETSE\08-Feb-2019\
 0\\#p M062X/6-31G* em=gd3 force int=ultrafine\\Title\\0,1\C,-4.94194,0
 .25419,-0.22933\C,-5.08091,-0.99857,-1.09969\C,-3.72964,-1.39293,-1.70
 781\C,-2.73469,-1.63042,-0.57663\C,-2.53364,-0.34365,0.27204\C,-3.8897
 ,0.06472,0.86734\H,-3.82148,-2.28891,-2.33235\H,-5.45796,-1.83046,-0.4
 9033\H,-5.80939,-0.83231,-1.90001\H,-4.64171,1.0984,-0.86589\H,-5.9103
 6,0.51325,0.21191\H,-3.10735,-2.42557,0.07428\H,-2.26126,0.43793,-0.45
 234\H,-4.21502,-0.70172,1.58226\H,-3.74373,1.00031,1.42117\H,-3.38986,
 -0.56756,-2.34879\N,-1.40251,-2.08555,-1.03712\C,-0.74186,-1.41667,-2.
 00962\C,-0.7082,-2.92744,-0.23577\C,0.60341,-1.55084,-2.20011\H,-1.336
 58,-0.74477,-2.61501\C,0.63903,-3.11101,-0.36292\H,-1.27846,-3.40709,0
 .55248\C,1.36877,-2.35004,-1.307\H,1.07583,-0.99412,-2.99867\H,1.13099
 ,-3.75709,0.3506\N,2.70798,-2.37015,-1.34045\C,3.47428,-2.9884,-0.2520
 8\H,3.32014,-4.07148,-0.23614\H,3.14061,-2.56489,0.70567\C,3.48619,-1.
 32788,-2.02645\H,3.70147,-1.63361,-3.05781\H,2.92434,-0.39023,-2.02923
 \N,-1.40848,-0.41687,1.18261\S,-1.45051,-1.39952,2.41784\O,-2.52713,-2
 .41294,2.3517\O,-0.09343,-1.96881,2.64324\C,-1.06742,2.71364,0.01866\C
 ,-0.34459,2.03351,-0.96597\C,-0.82853,1.98007,-2.27185\C,-2.04722,2.57
 071,-2.6041\C,-2.77817,3.23361,-1.61956\C,-2.28517,3.30566,-0.31918\H,
 0.56812,1.50863,-0.68993\H,-0.25122,1.46614,-3.03719\H,-2.4249,2.51875
 ,-3.62105\H,-3.73291,3.69124,-1.86221\H,-2.85995,3.81608,0.45094\O,0.2
 5887,1.69511,1.78174\H,-0.26063,0.87751,1.53007\C,2.38784,0.20427,1.42
 094\O,2.07023,-0.20237,0.3157\O,2.05679,-0.39719,2.54994\H,1.32565,-1.
 0608,2.40616\C,3.25602,1.41997,1.64575\H,2.85065,1.95141,2.51116\H,4.2
 6013,1.07032,1.92701\C,-0.55048,2.7836,1.44211\H,-1.4114,2.8835,2.1255
 2\H,0.05953,3.68833,1.56583\C,-1.75238,-0.39772,3.87091\H,-0.98889,0.3
 8389,3.88663\H,-2.74924,0.03877,3.78287\H,-1.68296,-1.02981,4.75728\C,
 3.31767,2.32577,0.42314\H,3.67543,1.75201,-0.4405\H,2.29717,2.64212,0.
 18075\C,4.20519,3.54526,0.65207\H,4.23825,4.18575,-0.23388\H,3.83216,4
 .14736,1.48713\H,5.23235,3.24865,0.89103\C,4.91595,-2.59753,-0.56533\H
 ,5.543,-2.60234,0.32841\H,5.34604,-3.29458,-1.29206\C,4.75821,-1.20606
 ,-1.18322\H,4.58215,-0.46902,-0.39396\H,5.62143,-0.89156,-1.7733\\Vers
 ion=ES64L-G16RevA.03\State=1-A\HF=-1991.3906335\RMSD=4.716e-09\RMSF=9.
 054e-05\Dipole=0.5963234,-0.1882497,-2.5516098\Quadrupole=10.6877827,-
 5.7085408,-4.9792419,-10.7325253,-0.6716572,9.1651588\PG=C01 [X(C27H41
 N3O5S1)]\\@


 WERE I TO AWAIT PERFECTION, MY BOOK WOULD NEVER BE FINISHED.
                                    -- HISTORY OF CHINESE WRITING

                                       TAI T'UNG, 13TH CENTURY
 Job cpu time:       0 days  1 hours 18 minutes  8.7 seconds.
 Elapsed time:       0 days  0 hours  3 minutes 16.7 seconds.
 File lengths (MBytes):  RWF=    216 Int=      0 D2E=      0 Chk=     25 Scr=      1
 Normal termination of Gaussian 16 at Fri Feb  8 01:49:11 2019.
