 Entering Gaussian System, Link 0=g16
 Input=C27N3H41SO5-146.gjf
 Output=C27N3H41SO5-146.log
 Initial command:
 /home/xinyan/g16/l1.exe "/local/home/tmp/Gau-26275.inp" -scrdir="/local/home/tmp/"
 Entering Link 1 = /home/xinyan/g16/l1.exe PID=     26276.
  
 Copyright (c) 1988,1990,1992,1993,1995,1998,2003,2009,2016,
            Gaussian, Inc.  All Rights Reserved.
  
 This is part of the Gaussian(R) 16 program.  It is based on
 the Gaussian(R) 09 system (copyright 2009, Gaussian, Inc.),
 the Gaussian(R) 03 system (copyright 2003, Gaussian, Inc.),
 the Gaussian(R) 98 system (copyright 1998, Gaussian, Inc.),
 the Gaussian(R) 94 system (copyright 1995, Gaussian, Inc.),
 the Gaussian 92(TM) system (copyright 1992, Gaussian, Inc.),
 the Gaussian 90(TM) system (copyright 1990, Gaussian, Inc.),
 the Gaussian 88(TM) system (copyright 1988, Gaussian, Inc.),
 the Gaussian 86(TM) system (copyright 1986, Carnegie Mellon
 University), and the Gaussian 82(TM) system (copyright 1983,
 Carnegie Mellon University). Gaussian is a federally registered
 trademark of Gaussian, Inc.
  
 This software contains proprietary and confidential information,
 including trade secrets, belonging to Gaussian, Inc.
  
 This software is provided under written license and may be
 used, copied, transmitted, or stored only in accord with that
 written license.
  
 The following legend is applicable only to US Government
 contracts under FAR:
  
                    RESTRICTED RIGHTS LEGEND
  
 Use, reproduction and disclosure by the US Government is
 subject to restrictions as set forth in subparagraphs (a)
 and (c) of the Commercial Computer Software - Restricted
 Rights clause in FAR 52.227-19.
  
 Gaussian, Inc.
 340 Quinnipiac St., Bldg. 40, Wallingford CT 06492
  
  
 ---------------------------------------------------------------
 Warning -- This program may not be used in any manner that
 competes with the business of Gaussian, Inc. or will provide
 assistance to any competitor of Gaussian, Inc.  The licensee
 of this program is prohibited from giving any competitor of
 Gaussian, Inc. access to this program.  By using this program,
 the user acknowledges that Gaussian, Inc. is engaged in the
 business of creating and licensing software in the field of
 computational chemistry and represents and warrants to the
 licensee that it is not a competitor of Gaussian, Inc. and that
 it will not use this program in any manner prohibited above.
 ---------------------------------------------------------------
  

 Cite this work as:
 Gaussian 16, Revision A.03,
 M. J. Frisch, G. W. Trucks, H. B. Schlegel, G. E. Scuseria, 
 M. A. Robb, J. R. Cheeseman, G. Scalmani, V. Barone, 
 G. A. Petersson, H. Nakatsuji, X. Li, M. Caricato, A. V. Marenich, 
 J. Bloino, B. G. Janesko, R. Gomperts, B. Mennucci, H. P. Hratchian, 
 J. V. Ortiz, A. F. Izmaylov, J. L. Sonnenberg, D. Williams-Young, 
 F. Ding, F. Lipparini, F. Egidi, J. Goings, B. Peng, A. Petrone, 
 T. Henderson, D. Ranasinghe, V. G. Zakrzewski, J. Gao, N. Rega, 
 G. Zheng, W. Liang, M. Hada, M. Ehara, K. Toyota, R. Fukuda, 
 J. Hasegawa, M. Ishida, T. Nakajima, Y. Honda, O. Kitao, H. Nakai, 
 T. Vreven, K. Throssell, J. A. Montgomery, Jr., J. E. Peralta, 
 F. Ogliaro, M. J. Bearpark, J. J. Heyd, E. N. Brothers, K. N. Kudin, 
 V. N. Staroverov, T. A. Keith, R. Kobayashi, J. Normand, 
 K. Raghavachari, A. P. Rendell, J. C. Burant, S. S. Iyengar, 
 J. Tomasi, M. Cossi, J. M. Millam, M. Klene, C. Adamo, R. Cammi, 
 J. W. Ochterski, R. L. Martin, K. Morokuma, O. Farkas, 
 J. B. Foresman, and D. J. Fox, Gaussian, Inc., Wallingford CT, 2016.
 
 ******************************************
 Gaussian 16:  ES64L-G16RevA.03 25-Dec-2016
                 7-Feb-2019 
 ******************************************
 %nproc=24
 Will use up to   24 processors via shared memory.
 ------------------------------------------
 #p M062X/6-31G* em=gd3 force int=ultrafine
 ------------------------------------------
 1/10=7,30=1,38=1/1,3;
 2/12=2,17=6,18=5,40=1/2;
 3/5=1,6=6,7=1,11=2,25=1,30=1,71=1,74=-55,75=-5,124=31/1,2,3;
 4//1;
 5/5=2,38=5/2;
 6/7=2,8=2,9=2,10=2,28=1/1;
 7/29=1/1,2,3,16;
 1/10=7,30=1/3;
 99//99;
 Leave Link    1 at Thu Feb  7 16:36:16 2019, MaxMem=           0 cpu:               2.5 elap:               0.1
 (Enter /home/xinyan/g16/l101.exe)
 -----
 Title
 -----
 Symbolic Z-matrix:
 Charge =  0 Multiplicity = 1
 C                    -4.90132   0.22866  -0.47233 
 C                    -5.06393  -1.03694  -1.31952 
 C                    -3.71842  -1.47358  -1.91197 
 C                    -2.73818  -1.71516  -0.77006 
 C                    -2.52822  -0.42275   0.06158 
 C                    -3.86999   0.03623   0.64401 
 H                    -3.82406  -2.37872  -2.51964 
 H                    -5.46467  -1.84853  -0.69813 
 H                    -5.78328  -0.86706  -2.12677 
 H                    -4.57744   1.05354  -1.12026 
 H                    -5.86524   0.5178   -0.04099 
 H                    -3.13652  -2.49214  -0.11025 
 H                    -2.19065   0.35358  -0.6371 
 H                    -4.23202  -0.70625   1.36295 
 H                    -3.70559   0.97798   1.17822 
 H                    -3.35307  -0.66974  -2.56534 
 N                    -1.40394  -2.18899  -1.19289 
 C                    -0.69912  -1.50082  -2.12937 
 C                    -0.72568  -2.98967  -0.32726 
 C                     0.65868  -1.55474  -2.20118 
 H                    -1.27841  -0.87731  -2.79913 
 C                     0.63177  -3.07291  -0.31874 
 H                    -1.33217  -3.50561   0.40921 
 C                     1.39138  -2.25255  -1.19489 
 H                     1.16388  -0.98365  -2.96809 
 H                     1.10178  -3.66934   0.45031 
 N                     2.71111  -2.14683  -1.08382 
 C                     3.41505  -2.58865   0.13058 
 H                     3.29679  -3.66611   0.27469 
 H                     2.99648  -2.0393    0.98714 
 C                     3.45705  -1.09099  -1.77983 
 H                     3.71741  -1.42122  -2.79295 
 H                     2.83438  -0.1936   -1.83284 
 N                    -1.43718  -0.54307   1.01553 
 S                    -1.5354   -1.42595   2.38094 
 O                    -2.73487  -2.26671   2.30863 
 O                    -0.25056  -2.09659   2.60023 
 C                    -0.73227   2.4892    0.31366 
 C                    -0.25057   2.06166  -0.93363 
 C                    -1.03001   2.19552  -2.08081 
 C                    -2.30839   2.75107  -2.01557 
 C                    -2.80114   3.17218  -0.7838 
 C                    -2.01468   3.0428    0.36149 
 H                     0.71457   1.57109  -0.97813 
 H                    -0.62965   1.86965  -3.03854 
 H                    -2.91011   2.85949  -2.91384 
 H                    -3.79453   3.60704  -0.71191 
 H                    -2.40673   3.38708   1.31676 
 O                     0.54598   1.28294   2.14567 
 H                    -0.4396   -0.29844   0.73077 
 C                     1.66997   0.55364   1.48928 
 O                     1.25873  -0.01357   0.37238 
 O                     2.03729  -0.36657   2.50121 
 H                     1.32473  -1.03201   2.51247 
 C                     2.897     1.50067   1.39507 
 H                     2.86985   2.19566   2.24395 
 H                     3.77246   0.86262   1.56795 
 C                     0.10636   2.49389   1.59484 
 H                    -0.51477   2.95585   2.37292 
 H                     0.95601   3.17528   1.44276 
 C                    -1.72906  -0.24512   3.69559 
 H                    -0.85958   0.41563   3.63806 
 H                    -2.65908   0.30088   3.52797 
 H                    -1.76433  -0.79656   4.63659 
 C                     3.0998    2.25978   0.08685 
 H                     3.0238    1.55328  -0.74805 
 H                     2.30345   2.99477  -0.0784 
 C                     4.45025   2.97214   0.04898 
 H                     4.59692   3.5152   -0.88986 
 H                     4.53541   3.69228   0.87054 
 H                     5.27408   2.25637   0.15772 
 C                     4.85917  -2.18647  -0.14863 
 H                     5.4363   -2.08012   0.77173 
 H                     5.34595  -2.93676  -0.78121 
 C                     4.69331  -0.86527  -0.90395 
 H                     4.47656  -0.06676  -0.19024 
 H                     5.57075  -0.58233  -1.48932 
 
 ITRead=  0  0  0  0  0  0  0  0  0  0  0  0  0  0  0  0  0  0  0  0
 ITRead=  0  0  0  0  0  0  0  0  0  0  0  0  0  0  0  0  0  0  0  0
 ITRead=  0  0  0  0  0  0  0  0  0  0  0  0  0  0  0  0  0  0  0  0
 ITRead=  0  0  0  0  0  0  0  0  0  0  0  0  0  0  0  0  0
 MicOpt= -1 -1 -1 -1 -1 -1 -1 -1 -1 -1 -1 -1 -1 -1 -1 -1 -1 -1 -1 -1
 MicOpt= -1 -1 -1 -1 -1 -1 -1 -1 -1 -1 -1 -1 -1 -1 -1 -1 -1 -1 -1 -1
 MicOpt= -1 -1 -1 -1 -1 -1 -1 -1 -1 -1 -1 -1 -1 -1 -1 -1 -1 -1 -1 -1
 MicOpt= -1 -1 -1 -1 -1 -1 -1 -1 -1 -1 -1 -1 -1 -1 -1 -1 -1
 NAtoms=     77 NQM=       77 NQMF=       0 NMMI=      0 NMMIF=      0
                NMic=       0 NMicF=      0.
                    Isotopes and Nuclear Properties:
 (Nuclear quadrupole moments (NQMom) in fm**2, nuclear magnetic moments (NMagM)
  in nuclear magnetons)

  Atom         1           2           3           4           5           6           7           8           9          10
 IAtWgt=          12          12          12          12          12          12           1           1           1           1
 AtmWgt=  12.0000000  12.0000000  12.0000000  12.0000000  12.0000000  12.0000000   1.0078250   1.0078250   1.0078250   1.0078250
 NucSpn=           0           0           0           0           0           0           1           1           1           1
 AtZEff=  -0.0000000  -0.0000000  -0.0000000  -0.0000000  -0.0000000  -0.0000000  -0.0000000  -0.0000000  -0.0000000  -0.0000000
 NQMom=    0.0000000   0.0000000   0.0000000   0.0000000   0.0000000   0.0000000   0.0000000   0.0000000   0.0000000   0.0000000
 NMagM=    0.0000000   0.0000000   0.0000000   0.0000000   0.0000000   0.0000000   2.7928460   2.7928460   2.7928460   2.7928460
 AtZNuc=   6.0000000   6.0000000   6.0000000   6.0000000   6.0000000   6.0000000   1.0000000   1.0000000   1.0000000   1.0000000

  Atom        11          12          13          14          15          16          17          18          19          20
 IAtWgt=           1           1           1           1           1           1          14          12          12          12
 AtmWgt=   1.0078250   1.0078250   1.0078250   1.0078250   1.0078250   1.0078250  14.0030740  12.0000000  12.0000000  12.0000000
 NucSpn=           1           1           1           1           1           1           2           0           0           0
 AtZEff=  -0.0000000  -0.0000000  -0.0000000  -0.0000000  -0.0000000  -0.0000000  -0.0000000  -0.0000000  -0.0000000  -0.0000000
 NQMom=    0.0000000   0.0000000   0.0000000   0.0000000   0.0000000   0.0000000   2.0440000   0.0000000   0.0000000   0.0000000
 NMagM=    2.7928460   2.7928460   2.7928460   2.7928460   2.7928460   2.7928460   0.4037610   0.0000000   0.0000000   0.0000000
 AtZNuc=   1.0000000   1.0000000   1.0000000   1.0000000   1.0000000   1.0000000   7.0000000   6.0000000   6.0000000   6.0000000

  Atom        21          22          23          24          25          26          27          28          29          30
 IAtWgt=           1          12           1          12           1           1          14          12           1           1
 AtmWgt=   1.0078250  12.0000000   1.0078250  12.0000000   1.0078250   1.0078250  14.0030740  12.0000000   1.0078250   1.0078250
 NucSpn=           1           0           1           0           1           1           2           0           1           1
 AtZEff=  -0.0000000  -0.0000000  -0.0000000  -0.0000000  -0.0000000  -0.0000000  -0.0000000  -0.0000000  -0.0000000  -0.0000000
 NQMom=    0.0000000   0.0000000   0.0000000   0.0000000   0.0000000   0.0000000   2.0440000   0.0000000   0.0000000   0.0000000
 NMagM=    2.7928460   0.0000000   2.7928460   0.0000000   2.7928460   2.7928460   0.4037610   0.0000000   2.7928460   2.7928460
 AtZNuc=   1.0000000   6.0000000   1.0000000   6.0000000   1.0000000   1.0000000   7.0000000   6.0000000   1.0000000   1.0000000

  Atom        31          32          33          34          35          36          37          38          39          40
 IAtWgt=          12           1           1          14          32          16          16          12          12          12
 AtmWgt=  12.0000000   1.0078250   1.0078250  14.0030740  31.9720718  15.9949146  15.9949146  12.0000000  12.0000000  12.0000000
 NucSpn=           0           1           1           2           0           0           0           0           0           0
 AtZEff=  -0.0000000  -0.0000000  -0.0000000  -0.0000000  -0.0000000  -0.0000000  -0.0000000  -0.0000000  -0.0000000  -0.0000000
 NQMom=    0.0000000   0.0000000   0.0000000   2.0440000   0.0000000   0.0000000   0.0000000   0.0000000   0.0000000   0.0000000
 NMagM=    0.0000000   2.7928460   2.7928460   0.4037610   0.0000000   0.0000000   0.0000000   0.0000000   0.0000000   0.0000000
 AtZNuc=   6.0000000   1.0000000   1.0000000   7.0000000  16.0000000   8.0000000   8.0000000   6.0000000   6.0000000   6.0000000

  Atom        41          42          43          44          45          46          47          48          49          50
 IAtWgt=          12          12          12           1           1           1           1           1          16           1
 AtmWgt=  12.0000000  12.0000000  12.0000000   1.0078250   1.0078250   1.0078250   1.0078250   1.0078250  15.9949146   1.0078250
 NucSpn=           0           0           0           1           1           1           1           1           0           1
 AtZEff=  -0.0000000  -0.0000000  -0.0000000  -0.0000000  -0.0000000  -0.0000000  -0.0000000  -0.0000000  -0.0000000  -0.0000000
 NQMom=    0.0000000   0.0000000   0.0000000   0.0000000   0.0000000   0.0000000   0.0000000   0.0000000   0.0000000   0.0000000
 NMagM=    0.0000000   0.0000000   0.0000000   2.7928460   2.7928460   2.7928460   2.7928460   2.7928460   0.0000000   2.7928460
 AtZNuc=   6.0000000   6.0000000   6.0000000   1.0000000   1.0000000   1.0000000   1.0000000   1.0000000   8.0000000   1.0000000

  Atom        51          52          53          54          55          56          57          58          59          60
 IAtWgt=          12          16          16           1          12           1           1          12           1           1
 AtmWgt=  12.0000000  15.9949146  15.9949146   1.0078250  12.0000000   1.0078250   1.0078250  12.0000000   1.0078250   1.0078250
 NucSpn=           0           0           0           1           0           1           1           0           1           1
 AtZEff=  -0.0000000  -0.0000000  -0.0000000  -0.0000000  -0.0000000  -0.0000000  -0.0000000  -0.0000000  -0.0000000  -0.0000000
 NQMom=    0.0000000   0.0000000   0.0000000   0.0000000   0.0000000   0.0000000   0.0000000   0.0000000   0.0000000   0.0000000
 NMagM=    0.0000000   0.0000000   0.0000000   2.7928460   0.0000000   2.7928460   2.7928460   0.0000000   2.7928460   2.7928460
 AtZNuc=   6.0000000   8.0000000   8.0000000   1.0000000   6.0000000   1.0000000   1.0000000   6.0000000   1.0000000   1.0000000

  Atom        61          62          63          64          65          66          67          68          69          70
 IAtWgt=          12           1           1           1          12           1           1          12           1           1
 AtmWgt=  12.0000000   1.0078250   1.0078250   1.0078250  12.0000000   1.0078250   1.0078250  12.0000000   1.0078250   1.0078250
 NucSpn=           0           1           1           1           0           1           1           0           1           1
 AtZEff=  -0.0000000  -0.0000000  -0.0000000  -0.0000000  -0.0000000  -0.0000000  -0.0000000  -0.0000000  -0.0000000  -0.0000000
 NQMom=    0.0000000   0.0000000   0.0000000   0.0000000   0.0000000   0.0000000   0.0000000   0.0000000   0.0000000   0.0000000
 NMagM=    0.0000000   2.7928460   2.7928460   2.7928460   0.0000000   2.7928460   2.7928460   0.0000000   2.7928460   2.7928460
 AtZNuc=   6.0000000   1.0000000   1.0000000   1.0000000   6.0000000   1.0000000   1.0000000   6.0000000   1.0000000   1.0000000

  Atom        71          72          73          74          75          76          77
 IAtWgt=           1          12           1           1          12           1           1
 AtmWgt=   1.0078250  12.0000000   1.0078250   1.0078250  12.0000000   1.0078250   1.0078250
 NucSpn=           1           0           1           1           0           1           1
 AtZEff=  -0.0000000  -0.0000000  -0.0000000  -0.0000000  -0.0000000  -0.0000000  -0.0000000
 NQMom=    0.0000000   0.0000000   0.0000000   0.0000000   0.0000000   0.0000000   0.0000000
 NMagM=    2.7928460   0.0000000   2.7928460   2.7928460   0.0000000   2.7928460   2.7928460
 AtZNuc=   1.0000000   6.0000000   1.0000000   1.0000000   6.0000000   1.0000000   1.0000000
 Leave Link  101 at Thu Feb  7 16:36:16 2019, MaxMem=   104857600 cpu:               5.1 elap:               0.2
 (Enter /home/xinyan/g16/l103.exe)

 GradGradGradGradGradGradGradGradGradGradGradGradGradGradGradGradGradGrad
 Berny optimization.
 Initialization pass.
 Trust Radius=3.00D-01 FncErr=1.00D-07 GrdErr=1.00D-07 EigMax=2.50D+02 EigMin=1.00D-04
 Number of steps in this run=      2 maximum allowed number of steps=      2.
 GradGradGradGradGradGradGradGradGradGradGradGradGradGradGradGradGradGrad

 Leave Link  103 at Thu Feb  7 16:36:16 2019, MaxMem=   104857600 cpu:               1.6 elap:               0.1
 (Enter /home/xinyan/g16/l202.exe)
 Stoichiometry    C27H41N3O5S
 Framework group  C1[X(C27H41N3O5S)]
 Deg. of freedom   225
 Full point group                 C1      NOp   1
 Largest Abelian subgroup         C1      NOp   1
 Largest concise Abelian subgroup C1      NOp   1
                         Standard orientation:                         
 ---------------------------------------------------------------------
 Center     Atomic      Atomic             Coordinates (Angstroms)
 Number     Number       Type             X           Y           Z
 ---------------------------------------------------------------------
      1          6           0       -4.782524    0.361295   -0.613321
      2          6           0       -4.936690   -0.933329   -1.417122
      3          6           0       -3.591666   -1.370981   -2.009929
      4          6           0       -2.596124   -1.562025   -0.871689
      5          6           0       -2.395149   -0.240479   -0.084822
      6          6           0       -3.736848    0.219222    0.497203
      7          1           0       -3.691287   -2.296794   -2.586685
      8          1           0       -5.319604   -1.729521   -0.765315
      9          1           0       -5.666840   -0.799528   -2.221456
     10          1           0       -4.476923    1.168872   -1.291234
     11          1           0       -5.745697    0.651400   -0.180961
     12          1           0       -2.976707   -2.322342   -0.182634
     13          1           0       -2.075732    0.517106   -0.812031
     14          1           0       -4.080973   -0.504202    1.243831
     15          1           0       -3.579759    1.180014    0.998704
     16          1           0       -3.244369   -0.584052   -2.693054
     17          7           0       -1.260056   -2.031462   -1.293643
     18          6           0       -0.574755   -1.364814   -2.259711
     19          6           0       -0.561689   -2.794317   -0.410028
     20          6           0        0.782819   -1.402838   -2.344746
     21          1           0       -1.169649   -0.771303   -2.942914
     22          6           0        0.796792   -2.859028   -0.413824
     23          1           0       -1.153168   -3.294048    0.349469
     24          6           0        1.535695   -2.057570   -1.324495
     25          1           0        1.271941   -0.850342   -3.135334
     26          1           0        1.283104   -3.423703    0.368940
     27          7           0        2.854951   -1.930599   -1.231520
     28          6           0        3.577759   -2.323098   -0.011275
     29          1           0        3.475873   -3.396773    0.169041
     30          1           0        3.160788   -1.751765    0.831574
     31          6           0        3.578859   -0.888115   -1.969652
     32          1           0        3.832966   -1.247692   -2.974333
     33          1           0        2.943372   -0.001360   -2.044880
     34          7           0       -1.292489   -0.314983    0.860406
     35         16           0       -1.364048   -1.154098    2.254764
     36          8           0       -2.552535   -2.012775    2.223061
     37          8           0       -0.067845   -1.799942    2.481488
     38          6           0       -0.636863    2.701960    0.052700
     39          6           0       -0.162597    2.240464   -1.185302
     40          6           0       -0.955942    2.326375   -2.327532
     41          6           0       -2.241081    2.866567   -2.266229
     42          6           0       -2.726472    3.320984   -1.043406
     43          6           0       -1.926189    3.239582    0.096712
     44          1           0        0.808675    1.761688   -1.224523
     45          1           0       -0.561328    1.974839   -3.278547
     46          1           0       -2.853740    2.937555   -3.160835
     47          1           0       -3.724932    3.744599   -0.974690
     48          1           0       -2.312774    3.609548    1.044578
     49          8           0        0.677245    1.573340    1.908659
     50          1           0       -0.301450   -0.066418    0.556837
     51          6           0        1.804131    0.838155    1.263903
     52          8           0        1.388898    0.229356    0.170624
     53          8           0        2.194802   -0.043554    2.301052
     54          1           0        1.491626   -0.717766    2.341792
     55          6           0        3.016944    1.797975    1.125428
     56          1           0        2.989248    2.519855    1.951544
     57          1           0        3.902887    1.177697    1.309240
     58          6           0        0.215180    2.759677    1.323699
     59          1           0       -0.403951    3.238399    2.093192
     60          1           0        1.053710    3.447075    1.140187
     61          6           0       -1.559968    0.066279    3.532443
     62          1           0       -0.700322    0.736399    3.443877
     63          1           0       -2.499140    0.594003    3.357481
     64          1           0       -1.577653   -0.454600    4.491184
     65          6           0        3.195377    2.516663   -0.208912
     66          1           0        3.120245    1.782353   -1.019541
     67          1           0        2.387279    3.235130   -0.389120
     68          6           0        4.535418    3.245451   -0.284825
     69          1           0        4.664625    3.759519   -1.242367
     70          1           0        4.619380    3.993080    0.511928
     71          1           0        5.370128    2.544718   -0.162021
     72          6           0        5.013162   -1.910913   -0.319352
     73          1           0        5.598514   -1.766874    0.590631
     74          1           0        5.503476   -2.674842   -0.932583
     75          6           0        4.821127   -0.617393   -1.115289
     76          1           0        4.601000    0.200992   -0.425528
     77          1           0        5.688325   -0.341957   -1.719206
 ---------------------------------------------------------------------
 Rotational constants (GHZ):           0.1555727           0.1004043           0.0907300
 Leave Link  202 at Thu Feb  7 16:36:16 2019, MaxMem=   104857600 cpu:               2.4 elap:               0.1
 (Enter /home/xinyan/g16/l301.exe)
 Standard basis: 6-31G(d) (6D, 7F)
 Ernie: Thresh=  0.10000D-02 Tol=  0.10000D-05 Strict=F.
 There are   626 symmetry adapted cartesian basis functions of A   symmetry.
 There are   626 symmetry adapted basis functions of A   symmetry.
   626 basis functions,  1196 primitive gaussians,   626 cartesian basis functions
   140 alpha electrons      140 beta electrons
       nuclear repulsion energy      4991.3095478937 Hartrees.
 IExCor= 4336 DFT=T Ex+Corr=M062X ExCW=0 ScaHFX=  0.540000
 ScaDFX=  1.000000  1.000000  1.000000  1.000000 ScalE2=  1.000000  1.000000
 IRadAn=      5 IRanWt=     -1 IRanGd=            0 ICorTp=0 IEmpDi=131
 NAtoms=   77 NActive=   77 NUniq=   77 SFac= 1.00D+00 NAtFMM=   60 NAOKFM=T Big=T
 Integral buffers will be    131072 words long.
 Raffenetti 2 integral format.
 Two-electron integral symmetry is turned on.
 R6Disp:  Grimme-D3 Dispersion energy=       -0.0108333528 Hartrees.
 Nuclear repulsion after empirical dispersion term =     4991.2987145409 Hartrees.
 Leave Link  301 at Thu Feb  7 16:36:16 2019, MaxMem=   104857600 cpu:               3.6 elap:               0.2
 (Enter /home/xinyan/g16/l302.exe)
 NPDir=0 NMtPBC=     1 NCelOv=     1 NCel=       1 NClECP=     1 NCelD=      1
         NCelK=      1 NCelE2=     1 NClLst=     1 CellRange=     0.0.
 One-electron integrals computed using PRISM.
 One-electron integral symmetry used in STVInt
 PrsmSu:  requested number of processors reduced to:  23 ShMem   1 Linda.
 NBasis=   626 RedAO= T EigKep=  4.46D-04  NBF=   626
 NBsUse=   626 1.00D-06 EigRej= -1.00D+00 NBFU=   626
 Precomputing XC quadrature grid using
 IXCGrd= 4 IRadAn=           5 IRanWt=          -1 IRanGd=           0 AccXCQ= 0.00D+00.
 Generated NRdTot=       0 NPtTot=           0 NUsed=           0 NTot=          32
 NSgBfM=   621   621   621   621   621 MxSgAt=    77 MxSgA2=    77.
 Leave Link  302 at Thu Feb  7 16:36:20 2019, MaxMem=   104857600 cpu:              92.7 elap:               4.1
 (Enter /home/xinyan/g16/l303.exe)
 DipDrv:  MaxL=1.
 Leave Link  303 at Thu Feb  7 16:36:21 2019, MaxMem=   104857600 cpu:               5.8 elap:               0.3
 (Enter /home/xinyan/g16/l401.exe)
 ExpMin= 1.17D-01 ExpMax= 2.19D+04 ExpMxC= 3.30D+03 IAcc=3 IRadAn=         5 AccDes= 0.00D+00
 Harris functional with IExCor= 1009 and IRadAn=       5 diagonalized for initial guess.
 HarFok:  IExCor= 1009 AccDes= 0.00D+00 IRadAn=         5 IDoV= 1 UseB2=F ITyADJ=14
 ICtDFT=  3500011 ScaDFX=  1.000000  1.000000  1.000000  1.000000
 FoFCou: FMM=F IPFlag=           0 FMFlag=      100000 FMFlg1=        2001
         NFxFlg=           0 DoJE=T BraDBF=F KetDBF=T FulRan=T
         wScrn=  0.000000 ICntrl=       500 IOpCl=  0 I1Cent=   200000004 NGrid=           0
         NMat0=    1 NMatS0=      1 NMatT0=    0 NMatD0=    1 NMtDS0=    0 NMtDT0=    0
 Petite list used in FoFCou.
 Harris En= -1990.52916016519    
 JPrj=0 DoOrth=F DoCkMO=F.
 Leave Link  401 at Thu Feb  7 16:36:25 2019, MaxMem=   104857600 cpu:             100.7 elap:               4.2
 (Enter /home/xinyan/g16/l502.exe)
 Integral symmetry usage will be decided dynamically.
 Closed shell SCF:
 Using DIIS extrapolation, IDIIS=  1040.
 NGot=   104857600 LenX=   104051656 LenY=   103659154
 Requested convergence on RMS density matrix=1.00D-08 within 128 cycles.
 Requested convergence on MAX density matrix=1.00D-06.
 Requested convergence on             energy=1.00D-06.
 No special actions if energy rises.
 Fock matrices will be formed incrementally for  20 cycles.
 Integral accuracy reduced to 1.0D-05 until final iterations.

 Cycle   1  Pass 0  IDiag  1:
 FoFJK:  IHMeth= 1 ICntrl=       0 DoSepK=F KAlg= 0 I1Cent=           0 FoldK=F
 IRaf= 990000000 NMat=       1 IRICut=       1 DoRegI=T DoRafI=F ISym2E= 0 IDoP0=0 IntGTp=1.
 FoFCou: FMM=T IPFlag=           0 FMFlag=      100000 FMFlg1=        2001
         NFxFlg=           0 DoJE=F BraDBF=F KetDBF=F FulRan=T
         wScrn=  0.000000 ICntrl=         0 IOpCl=  0 I1Cent=           0 NGrid=           0
         NMat0=    1 NMatS0=      1 NMatT0=    0 NMatD0=    1 NMtDS0=    0 NMtDT0=    0
 Symmetry not used in FoFCou.
 FMM levels:  10  Number of levels for PrismC:   9
 E= -1990.30165796374    
 DIIS: error= 2.15D-02 at cycle   1 NSaved=   1.
 NSaved= 1 IEnMin= 1 EnMin= -1990.30165796374     IErMin= 1 ErrMin= 2.15D-02
 ErrMax= 2.15D-02  0.00D+00 EMaxC= 1.00D-01 BMatC= 1.24D+00 BMatP= 1.24D+00
 IDIUse=3 WtCom= 7.85D-01 WtEn= 2.15D-01
 Coeff-Com:  0.100D+01
 Coeff-En:   0.100D+01
 Coeff:      0.100D+01
 Gap=     0.368 Goal=   None    Shift=    0.000
 GapD=    0.368 DampG=1.000 DampE=0.500 DampFc=0.5000 IDamp=-1.
 Damping current iteration by 5.00D-01
 RMSDP=3.43D-03 MaxDP=3.45D-01              OVMax= 1.95D-01

 Cycle   2  Pass 0  IDiag  1:
 RMSU=  1.71D-03    CP:  9.88D-01
 E= -1990.81377719181     Delta-E=       -0.512119228071 Rises=F Damp=T
 DIIS: error= 6.77D-03 at cycle   2 NSaved=   2.
 NSaved= 2 IEnMin= 2 EnMin= -1990.81377719181     IErMin= 2 ErrMin= 6.77D-03
 ErrMax= 6.77D-03  0.00D+00 EMaxC= 1.00D-01 BMatC= 9.26D-02 BMatP= 1.24D+00
 IDIUse=3 WtCom= 9.32D-01 WtEn= 6.77D-02
 Coeff-Com: -0.292D-01 0.103D+01
 Coeff-En:   0.000D+00 0.100D+01
 Coeff:     -0.273D-01 0.103D+01
 Gap=     0.263 Goal=   None    Shift=    0.000
 RMSDP=8.53D-04 MaxDP=7.81D-02 DE=-5.12D-01 OVMax= 1.19D-01

 Cycle   3  Pass 0  IDiag  1:
 RMSU=  8.43D-04    CP:  9.81D-01  9.47D-01
 E= -1991.31810009851     Delta-E=       -0.504322906702 Rises=F Damp=F
 DIIS: error= 6.30D-03 at cycle   3 NSaved=   3.
 NSaved= 3 IEnMin= 3 EnMin= -1991.31810009851     IErMin= 3 ErrMin= 6.30D-03
 ErrMax= 6.30D-03  0.00D+00 EMaxC= 1.00D-01 BMatC= 4.91D-02 BMatP= 9.26D-02
 IDIUse=3 WtCom= 9.37D-01 WtEn= 6.30D-02
 Coeff-Com: -0.715D-01 0.440D+00 0.632D+00
 Coeff-En:   0.000D+00 0.000D+00 0.100D+01
 Coeff:     -0.670D-01 0.412D+00 0.655D+00
 Gap=     0.250 Goal=   None    Shift=    0.000
 RMSDP=5.08D-04 MaxDP=3.81D-02 DE=-5.04D-01 OVMax= 5.91D-02

 Cycle   4  Pass 0  IDiag  1:
 RMSU=  3.37D-04    CP:  9.84D-01  1.05D+00  6.05D-01
 E= -1991.34832927265     Delta-E=       -0.030229174145 Rises=F Damp=F
 DIIS: error= 3.93D-03 at cycle   4 NSaved=   4.
 NSaved= 4 IEnMin= 4 EnMin= -1991.34832927265     IErMin= 4 ErrMin= 3.93D-03
 ErrMax= 3.93D-03  0.00D+00 EMaxC= 1.00D-01 BMatC= 1.18D-02 BMatP= 4.91D-02
 IDIUse=3 WtCom= 9.61D-01 WtEn= 3.93D-02
 Coeff-Com: -0.287D-01 0.921D-01 0.357D+00 0.579D+00
 Coeff-En:   0.000D+00 0.000D+00 0.204D+00 0.796D+00
 Coeff:     -0.276D-01 0.885D-01 0.351D+00 0.588D+00
 Gap=     0.230 Goal=   None    Shift=    0.000
 RMSDP=2.03D-04 MaxDP=1.47D-02 DE=-3.02D-02 OVMax= 2.77D-02

 Cycle   5  Pass 0  IDiag  1:
 RMSU=  8.59D-05    CP:  9.83D-01  1.04D+00  7.33D-01  5.62D-01
 E= -1991.35816468873     Delta-E=       -0.009835416078 Rises=F Damp=F
 DIIS: error= 1.01D-03 at cycle   5 NSaved=   5.
 NSaved= 5 IEnMin= 5 EnMin= -1991.35816468873     IErMin= 5 ErrMin= 1.01D-03
 ErrMax= 1.01D-03  0.00D+00 EMaxC= 1.00D-01 BMatC= 5.78D-04 BMatP= 1.18D-02
 IDIUse=3 WtCom= 9.90D-01 WtEn= 1.01D-02
 Coeff-Com: -0.940D-02 0.215D-01 0.133D+00 0.285D+00 0.570D+00
 Coeff-En:   0.000D+00 0.000D+00 0.000D+00 0.000D+00 0.100D+01
 Coeff:     -0.931D-02 0.213D-01 0.132D+00 0.282D+00 0.574D+00
 Gap=     0.230 Goal=   None    Shift=    0.000
 RMSDP=5.06D-05 MaxDP=3.67D-03 DE=-9.84D-03 OVMax= 8.68D-03

 Cycle   6  Pass 0  IDiag  1:
 RMSU=  2.71D-05    CP:  9.83D-01  1.04D+00  7.32D-01  6.35D-01  5.95D-01
 E= -1991.35866700445     Delta-E=       -0.000502315718 Rises=F Damp=F
 DIIS: error= 3.30D-04 at cycle   6 NSaved=   6.
 NSaved= 6 IEnMin= 6 EnMin= -1991.35866700445     IErMin= 6 ErrMin= 3.30D-04
 ErrMax= 3.30D-04  0.00D+00 EMaxC= 1.00D-01 BMatC= 5.70D-05 BMatP= 5.78D-04
 IDIUse=3 WtCom= 9.97D-01 WtEn= 3.30D-03
 Coeff-Com: -0.185D-02 0.198D-02 0.300D-01 0.828D-01 0.293D+00 0.594D+00
 Coeff-En:   0.000D+00 0.000D+00 0.000D+00 0.000D+00 0.000D+00 0.100D+01
 Coeff:     -0.185D-02 0.198D-02 0.299D-01 0.825D-01 0.292D+00 0.595D+00
 Gap=     0.231 Goal=   None    Shift=    0.000
 RMSDP=1.49D-05 MaxDP=8.94D-04 DE=-5.02D-04 OVMax= 2.36D-03

 Cycle   7  Pass 0  IDiag  1:
 RMSU=  9.37D-06    CP:  9.83D-01  1.04D+00  7.34D-01  6.35D-01  6.78D-01
                    CP:  6.77D-01
 E= -1991.35872080016     Delta-E=       -0.000053795710 Rises=F Damp=F
 DIIS: error= 5.52D-05 at cycle   7 NSaved=   7.
 NSaved= 7 IEnMin= 7 EnMin= -1991.35872080016     IErMin= 7 ErrMin= 5.52D-05
 ErrMax= 5.52D-05  0.00D+00 EMaxC= 1.00D-01 BMatC= 3.91D-06 BMatP= 5.70D-05
 IDIUse=1 WtCom= 1.00D+00 WtEn= 0.00D+00
 Coeff-Com:  0.165D-03-0.132D-02-0.129D-02 0.615D-02 0.718D-01 0.258D+00
 Coeff-Com:  0.667D+00
 Coeff:      0.165D-03-0.132D-02-0.129D-02 0.615D-02 0.718D-01 0.258D+00
 Coeff:      0.667D+00
 Gap=     0.231 Goal=   None    Shift=    0.000
 RMSDP=4.47D-06 MaxDP=2.44D-04 DE=-5.38D-05 OVMax= 5.15D-04

 Initial convergence to 1.0D-05 achieved.  Increase integral accuracy.
 Cycle   8  Pass 1  IDiag  1:
 E= -1991.35887335004     Delta-E=       -0.000152549884 Rises=F Damp=F
 DIIS: error= 2.29D-04 at cycle   1 NSaved=   1.
 NSaved= 1 IEnMin= 1 EnMin= -1991.35887335004     IErMin= 1 ErrMin= 2.29D-04
 ErrMax= 2.29D-04  0.00D+00 EMaxC= 1.00D-01 BMatC= 1.37D-05 BMatP= 1.37D-05
 IDIUse=3 WtCom= 9.98D-01 WtEn= 2.29D-03
 Coeff-Com:  0.100D+01
 Coeff-En:   0.100D+01
 Coeff:      0.100D+01
 Gap=     0.231 Goal=   None    Shift=    0.000
 RMSDP=4.47D-06 MaxDP=2.44D-04 DE=-1.53D-04 OVMax= 4.38D-04

 Cycle   9  Pass 1  IDiag  1:
 RMSU=  7.47D-05    CP:  1.00D+00
 E= -1991.35888568262     Delta-E=       -0.000012332574 Rises=F Damp=F
 DIIS: error= 2.20D-05 at cycle   2 NSaved=   2.
 NSaved= 2 IEnMin= 2 EnMin= -1991.35888568262     IErMin= 2 ErrMin= 2.20D-05
 ErrMax= 2.20D-05  0.00D+00 EMaxC= 1.00D-01 BMatC= 7.89D-07 BMatP= 1.37D-05
 IDIUse=1 WtCom= 1.00D+00 WtEn= 0.00D+00
 Coeff-Com:  0.661D-01 0.934D+00
 Coeff:      0.661D-01 0.934D+00
 Gap=     0.231 Goal=   None    Shift=    0.000
 RMSDP=3.88D-06 MaxDP=2.07D-04 DE=-1.23D-05 OVMax= 3.59D-04

 Cycle  10  Pass 1  IDiag  1:
 RMSU=  3.25D-06    CP:  1.00D+00  1.03D+00
 E= -1991.35888531379     Delta-E=        0.000000368826 Rises=F Damp=F
 DIIS: error= 3.60D-05 at cycle   3 NSaved=   3.
 NSaved= 3 IEnMin= 2 EnMin= -1991.35888568262     IErMin= 2 ErrMin= 2.20D-05
 ErrMax= 3.60D-05  0.00D+00 EMaxC= 1.00D-01 BMatC= 1.27D-06 BMatP= 7.89D-07
 IDIUse=1 WtCom= 1.00D+00 WtEn= 0.00D+00
 Coeff-Com: -0.149D-01 0.565D+00 0.450D+00
 Coeff:     -0.149D-01 0.565D+00 0.450D+00
 Gap=     0.231 Goal=   None    Shift=    0.000
 RMSDP=1.84D-06 MaxDP=1.24D-04 DE= 3.69D-07 OVMax= 2.20D-04

 Cycle  11  Pass 1  IDiag  1:
 RMSU=  6.35D-07    CP:  1.00D+00  1.03D+00  4.77D-01
 E= -1991.35888637003     Delta-E=       -0.000001056238 Rises=F Damp=F
 DIIS: error= 3.88D-06 at cycle   4 NSaved=   4.
 NSaved= 4 IEnMin= 4 EnMin= -1991.35888637003     IErMin= 4 ErrMin= 3.88D-06
 ErrMax= 3.88D-06  0.00D+00 EMaxC= 1.00D-01 BMatC= 1.05D-08 BMatP= 7.89D-07
 IDIUse=1 WtCom= 1.00D+00 WtEn= 0.00D+00
 Coeff-Com: -0.805D-02 0.251D+00 0.210D+00 0.546D+00
 Coeff:     -0.805D-02 0.251D+00 0.210D+00 0.546D+00
 Gap=     0.231 Goal=   None    Shift=    0.000
 RMSDP=2.16D-07 MaxDP=1.08D-05 DE=-1.06D-06 OVMax= 3.53D-05

 Cycle  12  Pass 1  IDiag  1:
 RMSU=  1.93D-07    CP:  1.00D+00  1.03D+00  4.95D-01  8.81D-01
 E= -1991.35888637982     Delta-E=       -0.000000009787 Rises=F Damp=F
 DIIS: error= 1.59D-06 at cycle   5 NSaved=   5.
 NSaved= 5 IEnMin= 5 EnMin= -1991.35888637982     IErMin= 5 ErrMin= 1.59D-06
 ErrMax= 1.59D-06  0.00D+00 EMaxC= 1.00D-01 BMatC= 1.04D-09 BMatP= 1.05D-08
 IDIUse=1 WtCom= 1.00D+00 WtEn= 0.00D+00
 Coeff-Com: -0.755D-03 0.846D-02 0.869D-02 0.222D+00 0.762D+00
 Coeff:     -0.755D-03 0.846D-02 0.869D-02 0.222D+00 0.762D+00
 Gap=     0.231 Goal=   None    Shift=    0.000
 RMSDP=8.97D-08 MaxDP=5.11D-06 DE=-9.79D-09 OVMax= 8.51D-06

 Cycle  13  Pass 1  IDiag  1:
 RMSU=  6.73D-08    CP:  1.00D+00  1.03D+00  4.96D-01  9.59D-01  8.49D-01
 E= -1991.35888638088     Delta-E=       -0.000000001064 Rises=F Damp=F
 DIIS: error= 5.18D-07 at cycle   6 NSaved=   6.
 NSaved= 6 IEnMin= 6 EnMin= -1991.35888638088     IErMin= 6 ErrMin= 5.18D-07
 ErrMax= 5.18D-07  0.00D+00 EMaxC= 1.00D-01 BMatC= 2.65D-10 BMatP= 1.04D-09
 IDIUse=1 WtCom= 1.00D+00 WtEn= 0.00D+00
 Coeff-Com:  0.821D-03-0.339D-01-0.281D-01 0.464D-01 0.422D+00 0.593D+00
 Coeff:      0.821D-03-0.339D-01-0.281D-01 0.464D-01 0.422D+00 0.593D+00
 Gap=     0.231 Goal=   None    Shift=    0.000
 RMSDP=3.62D-08 MaxDP=1.82D-06 DE=-1.06D-09 OVMax= 5.78D-06

 Cycle  14  Pass 1  IDiag  1:
 RMSU=  2.58D-08    CP:  1.00D+00  1.03D+00  4.96D-01  9.79D-01  9.33D-01
                    CP:  7.86D-01
 E= -1991.35888638118     Delta-E=       -0.000000000297 Rises=F Damp=F
 DIIS: error= 1.60D-07 at cycle   7 NSaved=   7.
 NSaved= 7 IEnMin= 7 EnMin= -1991.35888638118     IErMin= 7 ErrMin= 1.60D-07
 ErrMax= 1.60D-07  0.00D+00 EMaxC= 1.00D-01 BMatC= 1.65D-11 BMatP= 2.65D-10
 IDIUse=1 WtCom= 1.00D+00 WtEn= 0.00D+00
 Coeff-Com:  0.408D-03-0.148D-01-0.128D-01 0.208D-02 0.105D+00 0.249D+00
 Coeff-Com:  0.671D+00
 Coeff:      0.408D-03-0.148D-01-0.128D-01 0.208D-02 0.105D+00 0.249D+00
 Coeff:      0.671D+00
 Gap=     0.231 Goal=   None    Shift=    0.000
 RMSDP=9.64D-09 MaxDP=4.70D-07 DE=-2.97D-10 OVMax= 1.22D-06

 SCF Done:  E(RM062X) =  -1991.35888638     A.U. after   14 cycles
            NFock= 14  Conv=0.96D-08     -V/T= 2.0076
 KE= 1.976420948636D+03 PE=-1.463496533296D+04 EE= 5.675886783404D+03
 Leave Link  502 at Thu Feb  7 16:38:56 2019, MaxMem=   104857600 cpu:            3613.2 elap:             150.9
 (Enter /home/xinyan/g16/l601.exe)
 Copying SCF densities to generalized density rwf, IOpCl= 0 IROHF=0.

 **********************************************************************

            Population analysis using the SCF density.

 **********************************************************************

 Orbital symmetries:
       Occupied  (A) (A) (A) (A) (A) (A) (A) (A) (A) (A) (A) (A)
                 (A) (A) (A) (A) (A) (A) (A) (A) (A) (A) (A) (A)
                 (A) (A) (A) (A) (A) (A) (A) (A) (A) (A) (A) (A)
                 (A) (A) (A) (A) (A) (A) (A) (A) (A) (A) (A) (A)
                 (A) (A) (A) (A) (A) (A) (A) (A) (A) (A) (A) (A)
                 (A) (A) (A) (A) (A) (A) (A) (A) (A) (A) (A) (A)
                 (A) (A) (A) (A) (A) (A) (A) (A) (A) (A) (A) (A)
                 (A) (A) (A) (A) (A) (A) (A) (A) (A) (A) (A) (A)
                 (A) (A) (A) (A) (A) (A) (A) (A) (A) (A) (A) (A)
                 (A) (A) (A) (A) (A) (A) (A) (A) (A) (A) (A) (A)
                 (A) (A) (A) (A) (A) (A) (A) (A) (A) (A) (A) (A)
                 (A) (A) (A) (A) (A) (A) (A) (A)
       Virtual   (A) (A) (A) (A) (A) (A) (A) (A) (A) (A) (A) (A)
                 (A) (A) (A) (A) (A) (A) (A) (A) (A) (A) (A) (A)
                 (A) (A) (A) (A) (A) (A) (A) (A) (A) (A) (A) (A)
                 (A) (A) (A) (A) (A) (A) (A) (A) (A) (A) (A) (A)
                 (A) (A) (A) (A) (A) (A) (A) (A) (A) (A) (A) (A)
                 (A) (A) (A) (A) (A) (A) (A) (A) (A) (A) (A) (A)
                 (A) (A) (A) (A) (A) (A) (A) (A) (A) (A) (A) (A)
                 (A) (A) (A) (A) (A) (A) (A) (A) (A) (A) (A) (A)
                 (A) (A) (A) (A) (A) (A) (A) (A) (A) (A) (A) (A)
                 (A) (A) (A) (A) (A) (A) (A) (A) (A) (A) (A) (A)
                 (A) (A) (A) (A) (A) (A) (A) (A) (A) (A) (A) (A)
                 (A) (A) (A) (A) (A) (A) (A) (A) (A) (A) (A) (A)
                 (A) (A) (A) (A) (A) (A) (A) (A) (A) (A) (A) (A)
                 (A) (A) (A) (A) (A) (A) (A) (A) (A) (A) (A) (A)
                 (A) (A) (A) (A) (A) (A) (A) (A) (A) (A) (A) (A)
                 (A) (A) (A) (A) (A) (A) (A) (A) (A) (A) (A) (A)
                 (A) (A) (A) (A) (A) (A) (A) (A) (A) (A) (A) (A)
                 (A) (A) (A) (A) (A) (A) (A) (A) (A) (A) (A) (A)
                 (A) (A) (A) (A) (A) (A) (A) (A) (A) (A) (A) (A)
                 (A) (A) (A) (A) (A) (A) (A) (A) (A) (A) (A) (A)
                 (A) (A) (A) (A) (A) (A) (A) (A) (A) (A) (A) (A)
                 (A) (A) (A) (A) (A) (A) (A) (A) (A) (A) (A) (A)
                 (A) (A) (A) (A) (A) (A) (A) (A) (A) (A) (A) (A)
                 (A) (A) (A) (A) (A) (A) (A) (A) (A) (A) (A) (A)
                 (A) (A) (A) (A) (A) (A) (A) (A) (A) (A) (A) (A)
                 (A) (A) (A) (A) (A) (A) (A) (A) (A) (A) (A) (A)
                 (A) (A) (A) (A) (A) (A) (A) (A) (A) (A) (A) (A)
                 (A) (A) (A) (A) (A) (A) (A) (A) (A) (A) (A) (A)
                 (A) (A) (A) (A) (A) (A) (A) (A) (A) (A) (A) (A)
                 (A) (A) (A) (A) (A) (A) (A) (A) (A) (A) (A) (A)
                 (A) (A) (A) (A) (A) (A) (A) (A) (A) (A) (A) (A)
                 (A) (A) (A) (A) (A) (A) (A) (A) (A) (A) (A) (A)
                 (A) (A) (A) (A) (A) (A) (A) (A) (A) (A) (A) (A)
                 (A) (A) (A) (A) (A) (A) (A) (A) (A) (A) (A) (A)
                 (A) (A) (A) (A) (A) (A) (A) (A) (A) (A) (A) (A)
                 (A) (A) (A) (A) (A) (A) (A) (A) (A) (A) (A) (A)
                 (A) (A) (A) (A) (A) (A) (A) (A) (A) (A) (A) (A)
                 (A) (A) (A) (A) (A) (A) (A) (A) (A) (A) (A) (A)
                 (A) (A) (A) (A) (A) (A) (A) (A) (A) (A) (A) (A)
                 (A) (A) (A) (A) (A) (A) (A) (A) (A) (A) (A) (A)
                 (A) (A) (A) (A) (A) (A)
 The electronic state is 1-A.
 Alpha  occ. eigenvalues --  -90.14076 -19.61695 -19.61676 -19.58769 -19.56735
 Alpha  occ. eigenvalues --  -19.51376 -14.85132 -14.80455 -14.75521 -10.63392
 Alpha  occ. eigenvalues --  -10.62765 -10.62318 -10.62094 -10.60667 -10.59238
 Alpha  occ. eigenvalues --  -10.58656 -10.57943 -10.57890 -10.57083 -10.56868
 Alpha  occ. eigenvalues --  -10.56660 -10.55616 -10.55579 -10.55164 -10.54980
 Alpha  occ. eigenvalues --  -10.54792 -10.54729 -10.54674 -10.54523 -10.54352
 Alpha  occ. eigenvalues --  -10.54276 -10.54226 -10.53108 -10.51653 -10.51559
 Alpha  occ. eigenvalues --  -10.49781  -8.45055  -6.37270  -6.37249  -6.37092
 Alpha  occ. eigenvalues --   -1.21906  -1.13651  -1.13481  -1.10158  -1.09353
 Alpha  occ. eigenvalues --   -1.05909  -1.01614  -0.99392  -0.95691  -0.94950
 Alpha  occ. eigenvalues --   -0.93462  -0.90250  -0.88752  -0.85906  -0.85819
 Alpha  occ. eigenvalues --   -0.84797  -0.84659  -0.84304  -0.83026  -0.82623
 Alpha  occ. eigenvalues --   -0.76644  -0.76354  -0.75830  -0.74402  -0.72720
 Alpha  occ. eigenvalues --   -0.71580  -0.68332  -0.68278  -0.67919  -0.67156
 Alpha  occ. eigenvalues --   -0.66757  -0.65199  -0.64865  -0.63519  -0.60579
 Alpha  occ. eigenvalues --   -0.60405  -0.59798  -0.58870  -0.57824  -0.57557
 Alpha  occ. eigenvalues --   -0.57136  -0.56424  -0.55718  -0.55158  -0.54170
 Alpha  occ. eigenvalues --   -0.53471  -0.52637  -0.52400  -0.52364  -0.51887
 Alpha  occ. eigenvalues --   -0.51528  -0.51073  -0.50929  -0.49845  -0.49593
 Alpha  occ. eigenvalues --   -0.49158  -0.48807  -0.48200  -0.48108  -0.48072
 Alpha  occ. eigenvalues --   -0.47629  -0.47432  -0.46896  -0.46468  -0.46093
 Alpha  occ. eigenvalues --   -0.44920  -0.44679  -0.44096  -0.43886  -0.43249
 Alpha  occ. eigenvalues --   -0.42453  -0.42084  -0.41522  -0.41414  -0.41176
 Alpha  occ. eigenvalues --   -0.40879  -0.40449  -0.40017  -0.39847  -0.39459
 Alpha  occ. eigenvalues --   -0.39251  -0.39044  -0.38453  -0.37890  -0.37578
 Alpha  occ. eigenvalues --   -0.37359  -0.36725  -0.36572  -0.35685  -0.34875
 Alpha  occ. eigenvalues --   -0.34352  -0.33894  -0.31727  -0.30992  -0.29730
 Alpha  occ. eigenvalues --   -0.28887  -0.28570  -0.27588  -0.24976  -0.24511
 Alpha virt. eigenvalues --   -0.01442   0.00470   0.03599   0.03810   0.10181
 Alpha virt. eigenvalues --    0.11053   0.11608   0.12112   0.13212   0.13552
 Alpha virt. eigenvalues --    0.14198   0.14673   0.14796   0.15319   0.15597
 Alpha virt. eigenvalues --    0.16058   0.16852   0.16975   0.17234   0.17582
 Alpha virt. eigenvalues --    0.18011   0.18352   0.18543   0.18848   0.18922
 Alpha virt. eigenvalues --    0.19308   0.19647   0.19923   0.20136   0.20333
 Alpha virt. eigenvalues --    0.20636   0.21019   0.21086   0.21650   0.21721
 Alpha virt. eigenvalues --    0.22259   0.22542   0.22908   0.23466   0.23618
 Alpha virt. eigenvalues --    0.23864   0.24202   0.24455   0.24757   0.25105
 Alpha virt. eigenvalues --    0.25260   0.25640   0.26117   0.26438   0.26862
 Alpha virt. eigenvalues --    0.27145   0.27740   0.27874   0.28624   0.29029
 Alpha virt. eigenvalues --    0.29395   0.29752   0.30015   0.30797   0.30897
 Alpha virt. eigenvalues --    0.31410   0.31819   0.32481   0.32854   0.33167
 Alpha virt. eigenvalues --    0.33752   0.34548   0.35160   0.35563   0.35783
 Alpha virt. eigenvalues --    0.36311   0.37229   0.37787   0.38089   0.38880
 Alpha virt. eigenvalues --    0.39797   0.40294   0.40880   0.42866   0.43269
 Alpha virt. eigenvalues --    0.44541   0.44964   0.46878   0.48238   0.48892
 Alpha virt. eigenvalues --    0.49886   0.51275   0.52757   0.53409   0.54960
 Alpha virt. eigenvalues --    0.55188   0.55375   0.56012   0.56526   0.56926
 Alpha virt. eigenvalues --    0.57519   0.58168   0.58535   0.58731   0.59294
 Alpha virt. eigenvalues --    0.59503   0.59998   0.60337   0.60478   0.60557
 Alpha virt. eigenvalues --    0.61264   0.61431   0.62443   0.62678   0.62875
 Alpha virt. eigenvalues --    0.63842   0.64063   0.64730   0.65203   0.65502
 Alpha virt. eigenvalues --    0.66192   0.66845   0.66918   0.67456   0.67842
 Alpha virt. eigenvalues --    0.68476   0.68996   0.69472   0.69913   0.70702
 Alpha virt. eigenvalues --    0.70989   0.71395   0.71694   0.73131   0.73552
 Alpha virt. eigenvalues --    0.73712   0.74086   0.74711   0.74970   0.75648
 Alpha virt. eigenvalues --    0.76786   0.77400   0.77845   0.78605   0.78962
 Alpha virt. eigenvalues --    0.79459   0.79704   0.80237   0.81145   0.81304
 Alpha virt. eigenvalues --    0.81651   0.82149   0.82728   0.83550   0.84388
 Alpha virt. eigenvalues --    0.84978   0.85539   0.85716   0.86348   0.87317
 Alpha virt. eigenvalues --    0.87630   0.88420   0.89008   0.89493   0.89592
 Alpha virt. eigenvalues --    0.89847   0.90213   0.90559   0.90908   0.91237
 Alpha virt. eigenvalues --    0.91759   0.92303   0.92857   0.93057   0.93276
 Alpha virt. eigenvalues --    0.93682   0.94406   0.94836   0.95072   0.95547
 Alpha virt. eigenvalues --    0.95920   0.96134   0.96503   0.96615   0.97137
 Alpha virt. eigenvalues --    0.97295   0.97967   0.98097   0.98398   0.98442
 Alpha virt. eigenvalues --    0.99165   0.99781   0.99872   1.00509   1.00732
 Alpha virt. eigenvalues --    1.01359   1.01923   1.02121   1.02956   1.03056
 Alpha virt. eigenvalues --    1.03116   1.04299   1.04789   1.04947   1.05503
 Alpha virt. eigenvalues --    1.05846   1.07008   1.07825   1.08173   1.08755
 Alpha virt. eigenvalues --    1.10391   1.10644   1.11649   1.11924   1.12112
 Alpha virt. eigenvalues --    1.13264   1.13661   1.14449   1.15192   1.15462
 Alpha virt. eigenvalues --    1.16603   1.17615   1.18051   1.18712   1.18980
 Alpha virt. eigenvalues --    1.19939   1.21143   1.21472   1.21778   1.22103
 Alpha virt. eigenvalues --    1.22866   1.23586   1.24183   1.24418   1.25722
 Alpha virt. eigenvalues --    1.25945   1.28208   1.29206   1.29584   1.30637
 Alpha virt. eigenvalues --    1.31356   1.31713   1.31936   1.32400   1.33565
 Alpha virt. eigenvalues --    1.34365   1.34721   1.35055   1.36189   1.36940
 Alpha virt. eigenvalues --    1.37635   1.38412   1.39384   1.41111   1.41477
 Alpha virt. eigenvalues --    1.41725   1.42168   1.44174   1.44943   1.45926
 Alpha virt. eigenvalues --    1.47387   1.47889   1.48443   1.49194   1.49711
 Alpha virt. eigenvalues --    1.51021   1.52040   1.52494   1.52826   1.54596
 Alpha virt. eigenvalues --    1.54694   1.55085   1.55961   1.57037   1.57238
 Alpha virt. eigenvalues --    1.57503   1.58545   1.60681   1.61077   1.61692
 Alpha virt. eigenvalues --    1.61958   1.62774   1.63906   1.65939   1.67216
 Alpha virt. eigenvalues --    1.69108   1.69677   1.70565   1.72281   1.72941
 Alpha virt. eigenvalues --    1.74373   1.74732   1.75764   1.77219   1.78060
 Alpha virt. eigenvalues --    1.78539   1.79265   1.80454   1.80731   1.81705
 Alpha virt. eigenvalues --    1.84270   1.84622   1.85194   1.85711   1.86011
 Alpha virt. eigenvalues --    1.86335   1.86830   1.87620   1.88087   1.89115
 Alpha virt. eigenvalues --    1.90036   1.90087   1.90570   1.91172   1.91798
 Alpha virt. eigenvalues --    1.92770   1.93928   1.94100   1.94555   1.94673
 Alpha virt. eigenvalues --    1.95469   1.95662   1.96175   1.96981   1.97748
 Alpha virt. eigenvalues --    1.98414   1.99096   1.99161   2.00001   2.00985
 Alpha virt. eigenvalues --    2.01847   2.02344   2.02415   2.02797   2.03895
 Alpha virt. eigenvalues --    2.04315   2.06202   2.06417   2.06928   2.07498
 Alpha virt. eigenvalues --    2.07664   2.08306   2.08753   2.09243   2.09692
 Alpha virt. eigenvalues --    2.09927   2.10613   2.11830   2.11949   2.12795
 Alpha virt. eigenvalues --    2.12911   2.14057   2.14606   2.15174   2.16128
 Alpha virt. eigenvalues --    2.16339   2.16749   2.17383   2.18621   2.19313
 Alpha virt. eigenvalues --    2.20043   2.20473   2.20642   2.21639   2.22335
 Alpha virt. eigenvalues --    2.23137   2.23264   2.23581   2.23715   2.24612
 Alpha virt. eigenvalues --    2.25555   2.26148   2.26552   2.27489   2.28621
 Alpha virt. eigenvalues --    2.28807   2.30247   2.30843   2.31112   2.32151
 Alpha virt. eigenvalues --    2.32462   2.34195   2.35008   2.35238   2.35648
 Alpha virt. eigenvalues --    2.36068   2.37409   2.37855   2.38581   2.38823
 Alpha virt. eigenvalues --    2.39186   2.40278   2.40966   2.41743   2.42816
 Alpha virt. eigenvalues --    2.43293   2.44648   2.45346   2.46044   2.46991
 Alpha virt. eigenvalues --    2.49681   2.50816   2.51775   2.52221   2.53324
 Alpha virt. eigenvalues --    2.54131   2.54712   2.56438   2.57177   2.59979
 Alpha virt. eigenvalues --    2.60907   2.61834   2.62375   2.63009   2.64146
 Alpha virt. eigenvalues --    2.64707   2.64942   2.65869   2.67302   2.68351
 Alpha virt. eigenvalues --    2.68871   2.69698   2.70741   2.71714   2.72771
 Alpha virt. eigenvalues --    2.73767   2.74449   2.76328   2.76799   2.77359
 Alpha virt. eigenvalues --    2.79522   2.80205   2.80725   2.80883   2.81549
 Alpha virt. eigenvalues --    2.83430   2.85490   2.86276   2.87283   2.88406
 Alpha virt. eigenvalues --    2.89170   2.90942   2.92687   2.93872   2.97092
 Alpha virt. eigenvalues --    2.99781   3.00420   3.03105   3.05246   3.10455
 Alpha virt. eigenvalues --    3.14799   3.16421   3.23979   3.41393   3.42895
 Alpha virt. eigenvalues --    3.97099   4.02179   4.05137   4.09532   4.11093
 Alpha virt. eigenvalues --    4.15945   4.17451   4.18160   4.18671   4.19800
 Alpha virt. eigenvalues --    4.21439   4.23423   4.24587   4.26713   4.27418
 Alpha virt. eigenvalues --    4.29934   4.32816   4.33322   4.34825   4.35241
 Alpha virt. eigenvalues --    4.39681   4.40865   4.41869   4.44088   4.48034
 Alpha virt. eigenvalues --    4.50712   4.55945   4.58179   4.59149   4.61953
 Alpha virt. eigenvalues --    4.64057   4.65911   4.73871   4.75435   4.77149
 Alpha virt. eigenvalues --    4.80444
          Condensed to atoms (all electrons):
 Mulliken charges:
               1
     1  C   -0.306103
     2  C   -0.306922
     3  C   -0.310040
     4  C   -0.059325
     5  C    0.057190
     6  C   -0.311878
     7  H    0.173742
     8  H    0.162804
     9  H    0.165170
    10  H    0.150729
    11  H    0.162963
    12  H    0.208476
    13  H    0.172564
    14  H    0.193413
    15  H    0.163384
    16  H    0.153805
    17  N   -0.431855
    18  C    0.069327
    19  C    0.064136
    20  C   -0.204471
    21  H    0.206911
    22  C   -0.208965
    23  H    0.245811
    24  C    0.449380
    25  H    0.191044
    26  H    0.211751
    27  N   -0.528278
    28  C   -0.174557
    29  H    0.169873
    30  H    0.235037
    31  C   -0.154048
    32  H    0.167896
    33  H    0.201150
    34  N   -0.817126
    35  S    1.253945
    36  O   -0.611956
    37  O   -0.609049
    38  C    0.089520
    39  C   -0.178848
    40  C   -0.189047
    41  C   -0.170647
    42  C   -0.163649
    43  C   -0.212155
    44  H    0.204497
    45  H    0.141110
    46  H    0.154659
    47  H    0.158366
    48  H    0.152309
    49  O   -0.548087
    50  H    0.449603
    51  C    0.727561
    52  O   -0.724361
    53  O   -0.718209
    54  H    0.445726
    55  C   -0.337881
    56  H    0.150074
    57  H    0.149268
    58  C   -0.094066
    59  H    0.141232
    60  H    0.146895
    61  C   -0.662788
    62  H    0.271272
    63  H    0.196308
    64  H    0.217363
    65  C   -0.295551
    66  H    0.141115
    67  H    0.146768
    68  C   -0.475241
    69  H    0.149437
    70  H    0.155988
    71  H    0.143718
    72  C   -0.331830
    73  H    0.187569
    74  H    0.163501
    75  C   -0.344085
    76  H    0.194991
    77  H    0.171664
 Sum of Mulliken charges =  -0.00000
 Mulliken charges with hydrogens summed into heavy atoms:
               1
     1  C    0.007590
     2  C    0.021052
     3  C    0.017508
     4  C    0.149151
     5  C    0.229754
     6  C    0.044920
    17  N   -0.431855
    18  C    0.276238
    19  C    0.309947
    20  C   -0.013427
    22  C    0.002786
    24  C    0.449380
    27  N   -0.528278
    28  C    0.230353
    31  C    0.214998
    34  N   -0.367523
    35  S    1.253945
    36  O   -0.611956
    37  O   -0.609049
    38  C    0.089520
    39  C    0.025649
    40  C   -0.047937
    41  C   -0.015988
    42  C   -0.005283
    43  C   -0.059846
    49  O   -0.548087
    51  C    0.727561
    52  O   -0.724361
    53  O   -0.272483
    55  C   -0.038539
    58  C    0.194060
    61  C    0.022154
    65  C   -0.007669
    68  C   -0.026097
    72  C    0.019240
    75  C    0.022570
 Electronic spatial extent (au):  <R**2>=          14341.9000
 Charge=              0.0000 electrons
 Dipole moment (field-independent basis, Debye):
    X=             -2.2012    Y=             -1.8595    Z=             -6.4700  Tot=              7.0827
 Quadrupole moment (field-independent basis, Debye-Ang):
   XX=           -204.9752   YY=           -223.2750   ZZ=           -219.7827
   XY=            -12.1019   XZ=             -5.3220   YZ=             10.0980
 Traceless Quadrupole moment (field-independent basis, Debye-Ang):
   XX=             11.0358   YY=             -7.2640   ZZ=             -3.7717
   XY=            -12.1019   XZ=             -5.3220   YZ=             10.0980
 Octapole moment (field-independent basis, Debye-Ang**2):
  XXX=             18.7635  YYY=            -48.7014  ZZZ=              8.7432  XYY=             11.2664
  XXY=            -22.8269  XXZ=            -37.1802  XZZ=            -24.6689  YZZ=             12.5464
  YYZ=             18.0649  XYZ=            -20.5485
 Hexadecapole moment (field-independent basis, Debye-Ang**3):
 XXXX=          -9915.2745 YYYY=          -5364.9306 ZZZZ=          -3550.2984 XXXY=           -204.0950
 XXXZ=             -9.0772 YYYX=            -54.7410 YYYZ=             57.5784 ZZZX=           -110.4547
 ZZZY=             -3.3546 XXYY=          -2557.4567 XXZZ=          -2324.7060 YYZZ=          -1584.2749
 XXYZ=             50.2403 YYXZ=             52.9724 ZZXY=            -50.4040
 N-N= 4.991298714541D+03 E-N=-1.463496537014D+04  KE= 1.976420948636D+03
 No NMR shielding tensors so no spin-rotation constants.
 Leave Link  601 at Thu Feb  7 16:38:57 2019, MaxMem=   104857600 cpu:              23.5 elap:               1.1
 (Enter /home/xinyan/g16/l701.exe)
 ... and contract with generalized density number  0.
 Compute integral first derivatives.
 R6Disp: Adding Grimme-D3 dispersion energy 1st derivatives to the gradient.
 Leave Link  701 at Thu Feb  7 16:38:58 2019, MaxMem=   104857600 cpu:              21.1 elap:               0.9
 (Enter /home/xinyan/g16/l702.exe)
 L702 exits ... SP integral derivatives will be done elsewhere.
 Leave Link  702 at Thu Feb  7 16:38:58 2019, MaxMem=   104857600 cpu:               1.5 elap:               0.1
 (Enter /home/xinyan/g16/l703.exe)
 Integral derivatives from FoFJK, PRISM(SPDF).
 Compute integral first derivatives, UseDBF=F ICtDFT=           0.
 Calling FoFJK, ICntrl=      2127 FMM=T ISym2X=0 I1Cent= 0 IOpClX= 0 NMat=1 NMatS=1 NMatT=0.
 FoFJK:  IHMeth= 1 ICntrl=    2127 DoSepK=F KAlg= 0 I1Cent=           0 FoldK=F
 IRaf=         0 NMat=       1 IRICut=       1 DoRegI=T DoRafI=F ISym2E= 0 IDoP0=0 IntGTp=1.
 FoFCou: FMM=T IPFlag=           0 FMFlag=      100000 FMFlg1=        2001
         NFxFlg=           0 DoJE=F BraDBF=F KetDBF=F FulRan=T
         wScrn=  0.000000 ICntrl=      2127 IOpCl=  0 I1Cent=           0 NGrid=           0
         NMat0=    1 NMatS0=      1 NMatT0=    0 NMatD0=    1 NMtDS0=    0 NMtDT0=    0
 Symmetry not used in FoFCou.
 FMM levels:  10  Number of levels for PrismC:   9
 Leave Link  703 at Thu Feb  7 16:39:33 2019, MaxMem=   104857600 cpu:             831.9 elap:              34.8
 (Enter /home/xinyan/g16/l716.exe)
 Dipole        =-8.66008102D-01-7.31589602D-01-2.54550192D+00
 ***** Axes restored to original set *****
 -------------------------------------------------------------------
 Center     Atomic                   Forces (Hartrees/Bohr)
 Number     Number              X              Y              Z
 -------------------------------------------------------------------
      1        6           0.000000704   -0.000048276   -0.000042392
      2        6           0.000041863   -0.000012038    0.000025896
      3        6          -0.000000403   -0.000005929   -0.000025504
      4        6           0.000009209    0.000044221    0.000029404
      5        6          -0.000007879    0.000013788   -0.000015020
      6        6          -0.000020741    0.000034625    0.000029502
      7        1           0.000003270   -0.000003607   -0.000013404
      8        1          -0.000000444    0.000002726   -0.000021993
      9        1           0.000006785   -0.000004287   -0.000010954
     10        1          -0.000002864    0.000023573   -0.000035095
     11        1          -0.000005812   -0.000002676   -0.000014100
     12        1          -0.000008679   -0.000043366    0.000022463
     13        1          -0.000008600    0.000001728   -0.000008593
     14        1          -0.000008130   -0.000009929    0.000003557
     15        1          -0.000006711    0.000009730   -0.000005881
     16        1           0.000003019   -0.000008409   -0.000007989
     17        7          -0.000000042    0.000022926   -0.000008710
     18        6           0.000007159   -0.000037834   -0.000023513
     19        6           0.000001690    0.000011941   -0.000009914
     20        6          -0.000012366   -0.000019237   -0.000034924
     21        1           0.000013970    0.000002902    0.000008561
     22        6          -0.000002081   -0.000015479    0.000027420
     23        1           0.000003516    0.000010890    0.000015918
     24        6           0.000002869   -0.000001170    0.000015754
     25        1           0.000005356   -0.000002229   -0.000004610
     26        1           0.000010206    0.000023802    0.000017158
     27        7           0.000036078   -0.000030250    0.000040593
     28        6          -0.000005885    0.000021117   -0.000015395
     29        1           0.000007007    0.000029553    0.000007988
     30        1          -0.000010285    0.000018878   -0.000008974
     31        6           0.000000369   -0.000001444   -0.000025427
     32        1          -0.000000514   -0.000012379   -0.000004576
     33        1           0.000027305   -0.000000071   -0.000027731
     34        7          -0.000039001   -0.000016436   -0.000014100
     35       16          -0.000001471   -0.000031700   -0.000082723
     36        8           0.000023175    0.000023186   -0.000013926
     37        8          -0.000006712    0.000035145    0.000007369
     38        6          -0.000075754    0.000035070   -0.000021262
     39        6          -0.000036499   -0.000002386    0.000021348
     40        6          -0.000051534    0.000036311    0.000037963
     41        6           0.000035076   -0.000012817    0.000022159
     42        6          -0.000045280    0.000005560    0.000042426
     43        6           0.000045306   -0.000012172    0.000033785
     44        1          -0.000028345    0.000039163   -0.000001739
     45        1          -0.000027452    0.000027748    0.000036135
     46        1          -0.000002011    0.000008980    0.000041919
     47        1           0.000069151   -0.000038751    0.000017824
     48        1           0.000023785   -0.000030502   -0.000041595
     49        8          -0.000018969    0.000124128    0.000047854
     50        1          -0.000013860   -0.000007033    0.000078547
     51        6           0.000010866   -0.000022247   -0.000087582
     52        8           0.000070505    0.000066997   -0.000005744
     53        8          -0.000250628   -0.000319875    0.000023929
     54        1           0.000323017    0.000250445    0.000001597
     55        6          -0.000283646    0.000070692   -0.000012534
     56        1           0.000005038    0.000012927    0.000029720
     57        1           0.000144689   -0.000167309   -0.000014461
     58        6          -0.000044378   -0.000075556   -0.000012597
     59        1          -0.000020336    0.000024734    0.000099882
     60        1           0.000115682    0.000086393   -0.000042997
     61        6          -0.000022495    0.000030116    0.000029228
     62        1          -0.000025108   -0.000029457   -0.000012467
     63        1          -0.000008100    0.000003616   -0.000007879
     64        1          -0.000012519    0.000016556   -0.000000516
     65        6          -0.000600456   -0.000087336   -0.000194927
     66        1           0.000060740    0.000255783    0.000322567
     67        1           0.000175092   -0.000271916    0.000043917
     68        6           0.000502521    0.000060255    0.000140329
     69        1           0.000056459   -0.000018808   -0.000014669
     70        1          -0.000066304   -0.000239419   -0.000240174
     71        1          -0.000091547    0.000138976   -0.000052601
     72        6          -0.000003373    0.000013731   -0.000020705
     73        1           0.000006274    0.000013403   -0.000015911
     74        1           0.000005685    0.000002911    0.000013785
     75        6           0.000002092   -0.000000722   -0.000017250
     76        1           0.000014284   -0.000004240   -0.000029846
     77        1           0.000007405   -0.000007937   -0.000013589
 -------------------------------------------------------------------
 Cartesian Forces:  Max     0.000600456 RMS     0.000087375
 Z-matrix is all fixed cartesians, so copy forces.
 Leave Link  716 at Thu Feb  7 16:39:33 2019, MaxMem=   104857600 cpu:               2.4 elap:               0.1
 (Enter /home/xinyan/g16/l103.exe)

 GradGradGradGradGradGradGradGradGradGradGradGradGradGradGradGradGradGrad
 Berny optimization.
 Search for a local minimum.
 Step number   1 out of a maximum of    2
 All quantities printed in internal units (Hartrees-Bohrs-Radians)
 Second derivative matrix not updated -- first step.
 ITU=  0
     Eigenvalues ---    0.00000   0.00000   0.00000   0.00000   0.00000
     Eigenvalues ---    0.00000   0.00007   0.00013   0.00018   0.00021
     Eigenvalues ---    0.00037   0.00038   0.00084   0.00096   0.00116
     Eigenvalues ---    0.00135   0.00142   0.00203   0.00234   0.00293
     Eigenvalues ---    0.00392   0.00406   0.00450   0.00496   0.00590
     Eigenvalues ---    0.00603   0.00632   0.00688   0.00708   0.00846
     Eigenvalues ---    0.00961   0.01131   0.01166   0.01456   0.01657
     Eigenvalues ---    0.01683   0.01889   0.01953   0.02042   0.02159
     Eigenvalues ---    0.02295   0.02304   0.02444   0.02540   0.02872
     Eigenvalues ---    0.02955   0.03061   0.03092   0.03221   0.03447
     Eigenvalues ---    0.03558   0.03716   0.03915   0.04202   0.04327
     Eigenvalues ---    0.04363   0.04813   0.04843   0.04884   0.04924
     Eigenvalues ---    0.05024   0.05069   0.05100   0.05111   0.05167
     Eigenvalues ---    0.05191   0.05266   0.05373   0.05473   0.05613
     Eigenvalues ---    0.05645   0.05663   0.05701   0.05744   0.05789
     Eigenvalues ---    0.06013   0.06170   0.06252   0.06490   0.06568
     Eigenvalues ---    0.06839   0.06854   0.06973   0.07031   0.07067
     Eigenvalues ---    0.07165   0.07251   0.07274   0.07331   0.07380
     Eigenvalues ---    0.07654   0.07785   0.07859   0.07964   0.08081
     Eigenvalues ---    0.08462   0.08596   0.08779   0.09030   0.09728
     Eigenvalues ---    0.09768   0.10165   0.10463   0.11262   0.11455
     Eigenvalues ---    0.11831   0.12112   0.12595   0.12863   0.12911
     Eigenvalues ---    0.12941   0.13029   0.13350   0.13665   0.13933
     Eigenvalues ---    0.14129   0.14441   0.14637   0.15578   0.15744
     Eigenvalues ---    0.16045   0.16093   0.16888   0.16926   0.17010
     Eigenvalues ---    0.17234   0.17307   0.17741   0.17874   0.19554
     Eigenvalues ---    0.19671   0.20351   0.20624   0.21555   0.21690
     Eigenvalues ---    0.23040   0.23371   0.23759   0.24786   0.26409
     Eigenvalues ---    0.27468   0.28640   0.29596   0.30065   0.30604
     Eigenvalues ---    0.31424   0.32274   0.34039   0.34808   0.36317
     Eigenvalues ---    0.36750   0.39466   0.39948   0.41241   0.43079
     Eigenvalues ---    0.43572   0.44536   0.48144   0.49048   0.50175
     Eigenvalues ---    0.52850   0.56786   0.57642   0.60190   0.64971
     Eigenvalues ---    0.65359   0.66315   0.67421   0.68242   0.68780
     Eigenvalues ---    0.70507   0.77632   0.78181   0.78289   0.81030
     Eigenvalues ---    0.82938   0.83310   0.85419   0.86898   0.87224
     Eigenvalues ---    0.87813   0.88681   0.90582   0.91310   0.93942
     Eigenvalues ---    0.94473   0.94777   0.95087   0.95577   0.96309
     Eigenvalues ---    0.97781   0.97851   0.99551   1.00290   1.00582
     Eigenvalues ---    1.00737   1.03825   1.04264   1.04691   1.06098
     Eigenvalues ---    1.06254   1.06779   1.07055   1.08866   1.09042
     Eigenvalues ---    1.12691   1.15486   1.15872   1.16588   1.19891
     Eigenvalues ---    1.21256   1.24209   1.25933   1.27632   1.37246
     Eigenvalues ---    1.47286   1.53625   1.56337   1.58294   1.58865
     Eigenvalues ---    1.59594   1.67369   1.73088   1.84111   2.33499
 Eigenvalue     1 is   0.00D+00 Eigenvector:
                          Y46       Y45       Y41       Y47       Y40
   1                    0.13557   0.13557   0.13557   0.13557   0.13557
                          Y42       Y39       Y43       Y44       Y38
   1                    0.13557   0.13557   0.13557   0.13557   0.13557
 Eigenvalue     2 is   5.42D-08 Eigenvector:
                          X45       X46       X40       X41       Y73
   1                    0.16977   0.15489   0.14746   0.13920   0.13726
                          Y46       X44       Y77       Y74       X66
   1                   -0.13481   0.13438   0.13340   0.13129   0.13029
 Eigenvalue     3 is   6.37D-08 Eigenvector:
                          Y46       X54       X53       Z47       Y47
   1                    0.21145  -0.20711  -0.18649  -0.18268   0.18001
                          Y41       Z46       Z42       Y42       Z70
   1                    0.16960  -0.16762  -0.15509   0.15204   0.14743
 Eigenvalue     4 is   1.51D-07 Eigenvector:
                          Z77       Z76       Z54       Z53       Z57
   1                    0.18095   0.17904  -0.17342  -0.16943  -0.16935
                          Z71       Z75       Y64       Z33       Z52
   1                   -0.16119   0.15748  -0.15490   0.14780  -0.14724
 Eigenvalue     5 is   2.47D-07 Eigenvector:
                          Z47       Y46       Y9        Y64       Y47
   1                    0.17901   0.17809  -0.16097   0.15876   0.15004
                          Z42       Y7        Y73       Z48       Z46
   1                    0.14398  -0.14178   0.14034   0.13957   0.13899
 Eigenvalue     6 is   4.43D-07 Eigenvector:
                          Y69       Z54       Y48       Y59       Y71
   1                    0.26198  -0.24570  -0.23214  -0.22898   0.21115
                          Y45       Y68       Z53       Z70       Y66
   1                    0.18927   0.18160  -0.18137   0.17938   0.17816
 Eigenvalue     7 is   7.15D-05 Eigenvector:
                          X69       X45       X46       X70       X67
   1                    0.27672  -0.24694  -0.23048   0.21577   0.21365
                          Z70       X68       Z69       X40       X41
   1                    0.21085   0.20762   0.20378  -0.18937  -0.18042
 Quadratic step=1.325D+00 exceeds max=3.000D-01 adjusted using Lamda=-3.785D-04.
 Angle between NR and scaled steps=   9.97 degrees.
 Angle between quadratic step and forces=  82.85 degrees.
 Linear search not attempted -- first point.
 B after Tr=    -0.000775    0.001109    0.001625
         Rot=    1.000000   -0.000137    0.000038   -0.000025 Ang=  -0.02 deg.
 Variable       Old X    -DE/DX   Delta X   Delta X   Delta X     New X
                                 (Linear)    (Quad)   (Total)
    X1       -9.26215   0.00000   0.00000  -0.00091  -0.00164  -9.26379
    Y1        0.43210  -0.00005   0.00000  -0.00823  -0.00734   0.42477
    Z1       -0.89257  -0.00004   0.00000  -0.03176  -0.03072  -0.92330
    X2       -9.56944   0.00004   0.00000   0.00786   0.00737  -9.56207
    Y2       -1.95953  -0.00001   0.00000  -0.01472  -0.01341  -1.97294
    Z2       -2.49353   0.00003   0.00000  -0.02351  -0.02315  -2.51668
    X3       -7.02680  -0.00000   0.00000   0.01258   0.01222  -7.01457
    Y3       -2.78466  -0.00001   0.00000  -0.01510  -0.01335  -2.79801
    Z3       -3.61310  -0.00003   0.00000  -0.01211  -0.01178  -3.62487
    X4       -5.17441   0.00001   0.00000   0.00639   0.00589  -5.16852
    Y4       -3.24118   0.00004   0.00000  -0.00409  -0.00284  -3.24403
    Z4       -1.45520   0.00003   0.00000  -0.00440  -0.00405  -1.45926
    X5       -4.77764  -0.00001   0.00000  -0.00246  -0.00320  -4.78085
    Y5       -0.79888   0.00001   0.00000   0.00192   0.00276  -0.79612
    Z5        0.11637  -0.00002   0.00000  -0.01134  -0.01029   0.10608
    X6       -7.31322  -0.00002   0.00000  -0.00778  -0.00865  -7.32187
    Y6        0.06846   0.00003   0.00000   0.00240   0.00281   0.07128
    Z6        1.21700   0.00003   0.00000  -0.02353  -0.02244   1.19457
    X7       -7.22643   0.00000   0.00000   0.01881   0.01862  -7.20781
    Y7       -4.49513  -0.00000   0.00000  -0.01964  -0.01759  -4.51272
    Z7       -4.76143  -0.00001   0.00000  -0.00643  -0.00659  -4.76802
    X8      -10.32673  -0.00000   0.00000   0.00610   0.00561 -10.32112
    Y8       -3.49322   0.00000   0.00000  -0.01139  -0.01043  -3.50365
    Z8       -1.31927  -0.00002   0.00000  -0.02035  -0.02046  -1.33974
    X9      -10.92882   0.00001   0.00000   0.01247   0.01209 -10.91673
    Y9       -1.63851  -0.00000   0.00000  -0.02234  -0.02068  -1.65919
    Z9       -4.01901  -0.00001   0.00000  -0.02922  -0.02887  -4.04789
   X10       -8.65011  -0.00000   0.00000   0.00095   0.00023  -8.64987
   Y10        1.99090   0.00002   0.00000  -0.01189  -0.01063   1.98028
   Z10       -2.11698  -0.00004   0.00000  -0.03565  -0.03414  -2.15112
   X11      -11.08370  -0.00001   0.00000  -0.00450  -0.00531 -11.08901
   Y11        0.97850  -0.00000   0.00000  -0.00777  -0.00719   0.97131
   Z11       -0.07746  -0.00001   0.00000  -0.04006  -0.03900  -0.11646
   X12       -5.92716  -0.00001   0.00000   0.00456   0.00404  -5.92312
   Y12       -4.70946  -0.00004   0.00000  -0.00054   0.00033  -4.70913
   Z12       -0.20834   0.00002   0.00000  -0.00109  -0.00119  -0.20954
   X13       -4.13973  -0.00001   0.00000   0.00103   0.00032  -4.13941
   Y13        0.66817   0.00000   0.00000  -0.00136  -0.00013   0.66804
   Z13       -1.20394  -0.00001   0.00000  -0.01330  -0.01180  -1.21575
   X14       -7.99736  -0.00001   0.00000  -0.01059  -0.01149  -8.00885
   Y14       -1.33462  -0.00001   0.00000   0.00630   0.00630  -1.32831
   Z14        2.57560   0.00000   0.00000  -0.02083  -0.02017   2.55543
   X15       -7.00255  -0.00001   0.00000  -0.01398  -0.01502  -7.01757
   Y15        1.84811   0.00001   0.00000   0.00652   0.00668   1.85479
   Z15        2.22651  -0.00001   0.00000  -0.02883  -0.02723   2.19928
   X16       -6.33638   0.00000   0.00000   0.01423   0.01389  -6.32249
   Y16       -1.26563  -0.00001   0.00000  -0.01869  -0.01657  -1.28220
   Z16       -4.84779  -0.00001   0.00000  -0.01560  -0.01480  -4.86259
   X17       -2.65306  -0.00000   0.00000   0.00940   0.00901  -2.64405
   Y17       -4.13659   0.00002   0.00000  -0.00509  -0.00350  -4.14009
   Z17       -2.25424  -0.00001   0.00000   0.00578   0.00608  -2.24816
   X18       -1.32115   0.00001   0.00000   0.00800   0.00768  -1.31347
   Y18       -2.83614  -0.00004   0.00000  -0.01935  -0.01721  -2.85335
   Z18       -4.02393  -0.00002   0.00000  -0.00577  -0.00503  -4.02895
   X19       -1.37134   0.00000   0.00000   0.01118   0.01074  -1.36060
   Y19       -5.64966   0.00001   0.00000   0.01133   0.01254  -5.63712
   Z19       -0.61843  -0.00001   0.00000   0.01959   0.01957  -0.59886
   X20        1.24472  -0.00001   0.00000   0.00798   0.00767   1.25240
   Y20       -2.93803  -0.00002   0.00000  -0.01922  -0.01691  -2.95494
   Z20       -4.15963  -0.00003   0.00000  -0.00624  -0.00533  -4.16496
   X21       -2.41584   0.00001   0.00000   0.00683   0.00654  -2.40930
   Y21       -1.65788   0.00000   0.00000  -0.03129  -0.02885  -1.68673
   Z21       -5.28959   0.00001   0.00000  -0.01584  -0.01486  -5.30445
   X22        1.19387  -0.00000   0.00000   0.01140   0.01096   1.20484
   Y22       -5.80696  -0.00002   0.00000   0.01413   0.01545  -5.79150
   Z22       -0.60233   0.00003   0.00000   0.02083   0.02096  -0.58137
   X23       -2.51744   0.00000   0.00000   0.01231   0.01180  -2.50563
   Y23       -6.62464   0.00001   0.00000   0.02283   0.02359  -6.60105
   Z23        0.77329   0.00002   0.00000   0.02858   0.02821   0.80151
   X24        2.62933   0.00000   0.00000   0.00982   0.00943   2.63875
   Y24       -4.25670  -0.00000   0.00000  -0.00124   0.00062  -4.25609
   Z24       -2.25801   0.00002   0.00000   0.00493   0.00559  -2.25242
   X25        2.19941   0.00001   0.00000   0.00662   0.00637   2.20578
   Y25       -1.85883  -0.00000   0.00000  -0.03178  -0.02902  -1.88785
   Z25       -5.60888  -0.00000   0.00000  -0.01650  -0.01523  -5.62411
   X26        2.08206   0.00001   0.00000   0.01279   0.01230   2.09436
   Y26       -6.93405   0.00002   0.00000   0.02871   0.02968  -6.90436
   Z26        0.85096   0.00002   0.00000   0.03129   0.03118   0.88215
   X27        5.12326   0.00004   0.00000   0.01017   0.00976   5.13302
   Y27       -4.05692  -0.00003   0.00000   0.00022   0.00215  -4.05477
   Z27       -2.04812   0.00004   0.00000  -0.00011   0.00079  -2.04733
   X28        6.45351  -0.00001   0.00000   0.01268   0.01213   6.46564
   Y28       -4.89184   0.00002   0.00000   0.02416   0.02552  -4.86632
   Z28        0.24676  -0.00002   0.00000   0.00697   0.00776   0.25452
   X29        6.23003   0.00001   0.00000   0.01116   0.01069   6.24072
   Y29       -6.92794   0.00003   0.00000   0.02741   0.02868  -6.89926
   Z29        0.51909   0.00001   0.00000   0.02961   0.02983   0.54891
   X30        5.66253  -0.00001   0.00000   0.01579   0.01507   5.67760
   Y30       -3.85372   0.00002   0.00000   0.04268   0.04357  -3.81015
   Z30        1.86542  -0.00001   0.00000  -0.00338  -0.00237   1.86306
   X31        6.53288   0.00000   0.00000   0.00989   0.00948   6.54235
   Y31       -2.06167  -0.00000   0.00000  -0.01511  -0.01274  -2.07441
   Z31       -3.36339  -0.00003   0.00000  -0.02384  -0.02229  -3.38568
   X32        7.02489  -0.00000   0.00000   0.00607   0.00584   7.03072
   Y32       -2.68572  -0.00001   0.00000  -0.03630  -0.03339  -2.71910
   Z32       -5.27791  -0.00000   0.00000  -0.01791  -0.01649  -5.29440
   X33        5.35620   0.00003   0.00000   0.01175   0.01126   5.36746
   Y33       -0.36585  -0.00000   0.00000  -0.01482  -0.01248  -0.37833
   Z33       -3.46357  -0.00003   0.00000  -0.04035  -0.03842  -3.50199
   X34       -2.71588  -0.00004   0.00000  -0.01004  -0.01091  -2.72679
   Y34       -1.02625  -0.00002   0.00000   0.00918   0.00962  -1.01663
   Z34        1.91907  -0.00001   0.00000  -0.00181  -0.00067   1.91840
   X35       -2.90149  -0.00000   0.00000  -0.01779  -0.01877  -2.92026
   Y35       -2.69465  -0.00003   0.00000   0.01116   0.01089  -2.68376
   Z35        4.49932  -0.00008   0.00000  -0.00124  -0.00057   4.49875
   X36       -5.16816   0.00002   0.00000  -0.01276  -0.01365  -5.18181
   Y36       -4.28346   0.00002   0.00000   0.00487   0.00453  -4.27893
   Z36        4.36268  -0.00001   0.00000  -0.01072  -0.01066   4.35202
   X37       -0.47349  -0.00001   0.00000  -0.01620  -0.01715  -0.49064
   Y37       -3.96198   0.00004   0.00000   0.01841   0.01815  -3.94383
   Z37        4.91372   0.00001   0.00000   0.01155   0.01206   4.92578
   X38       -1.38379  -0.00008   0.00000  -0.00101  -0.00207  -1.38586
   Y38        4.70391   0.00004   0.00000   0.01193   0.01280   4.71671
   Z38        0.59273  -0.00002   0.00000   0.02476   0.02757   0.62030
   X39       -0.47351  -0.00004   0.00000  -0.01174  -0.01258  -0.48609
   Y39        3.89597  -0.00000   0.00000   0.01831   0.01987   3.91585
   Z39       -1.76431   0.00002   0.00000   0.01853   0.02119  -1.74312
   X40       -1.94644  -0.00005   0.00000  -0.02444  -0.02513  -1.97156
   Y40        4.14893   0.00004   0.00000   0.01694   0.01902   4.16795
   Z40       -3.93216   0.00004   0.00000   0.02712   0.02974  -3.90242
   X41       -4.36222   0.00004   0.00000  -0.02711  -0.02786  -4.39009
   Y41        5.19877  -0.00001   0.00000   0.00849   0.01040   5.20917
   Z41       -3.80888   0.00002   0.00000   0.04211   0.04483  -3.76405
   X42       -5.29339  -0.00005   0.00000  -0.01678  -0.01775  -5.31114
   Y42        5.99455   0.00001   0.00000   0.00157   0.00280   5.99735
   Z42       -1.48117   0.00004   0.00000   0.04851   0.05138  -1.42979
   X43       -3.80719   0.00005   0.00000  -0.00378  -0.00490  -3.81210
   Y43        5.75006  -0.00001   0.00000   0.00370   0.00442   5.75448
   Z43        0.68312   0.00003   0.00000   0.03975   0.04266   0.72578
   X44        1.35034  -0.00003   0.00000  -0.00909  -0.00988   1.34046
   Y44        2.96893   0.00004   0.00000   0.02478   0.02646   2.99539
   Z44       -1.84840  -0.00000   0.00000   0.00682   0.00937  -1.83903
   X45       -1.18987  -0.00003   0.00000  -0.03233  -0.03286  -1.22272
   Y45        3.53313   0.00003   0.00000   0.02261   0.02522   3.55835
   Z45       -5.74201   0.00004   0.00000   0.02199   0.02449  -5.71751
   X46       -5.49931  -0.00000   0.00000  -0.03715  -0.03779  -5.53710
   Y46        5.40365   0.00001   0.00000   0.00740   0.00972   5.41337
   Z46       -5.50636   0.00004   0.00000   0.04878   0.05147  -5.45489
   X47       -7.17062   0.00007   0.00000  -0.01871  -0.01973  -7.19035
   Y47        6.81632  -0.00004   0.00000  -0.00538  -0.00428   6.81204
   Z47       -1.34531   0.00002   0.00000   0.06018   0.06312  -1.28219
   X48       -4.54806   0.00002   0.00000   0.00406   0.00277  -4.54529
   Y48        6.40065  -0.00003   0.00000  -0.00166  -0.00147   6.39918
   Z48        2.48832  -0.00004   0.00000   0.04466   0.04769   2.53600
   X49        1.03175  -0.00002   0.00000   0.01148   0.01028   1.04203
   Y49        2.42441   0.00012   0.00000   0.01288   0.01293   2.43733
   Z49        4.05473   0.00005   0.00000   0.01614   0.01851   4.07324
   X50       -0.83072  -0.00001   0.00000  -0.00846  -0.00931  -0.84004
   Y50       -0.56397  -0.00001   0.00000   0.01264   0.01332  -0.55065
   Z50        1.38096   0.00008   0.00000   0.00702   0.00844   1.38939
   X51        3.15579   0.00001   0.00000  -0.00282  -0.00386   3.15193
   Y51        1.04623  -0.00002   0.00000   0.00030   0.00080   1.04702
   Z51        2.81433  -0.00009   0.00000   0.00507   0.00722   2.82155
   X52        2.37865   0.00007   0.00000  -0.01842  -0.01925   2.35941
   Y52       -0.02564   0.00007   0.00000   0.00798   0.00901  -0.01663
   Z52        0.70370  -0.00001   0.00000   0.00699   0.00879   0.71249
   X53        3.84992  -0.00025   0.00000  -0.00360  -0.00469   3.84523
   Y53       -0.69272  -0.00032   0.00000  -0.00635  -0.00633  -0.69905
   Z53        4.72660   0.00002   0.00000  -0.00044   0.00128   4.72788
   X54        2.50338   0.00032   0.00000  -0.00914  -0.01018   2.49320
   Y54       -1.95022   0.00025   0.00000   0.00081   0.00075  -1.94946
   Z54        4.74788   0.00000   0.00000   0.00383   0.00511   4.75299
   X55        5.47454  -0.00028   0.00000   0.00725   0.00613   5.48067
   Y55        2.83586   0.00007   0.00000  -0.01478  -0.01411   2.82174
   Z55        2.63630  -0.00001   0.00000  -0.00403  -0.00122   2.63508
   X56        5.42323   0.00001   0.00000   0.02320   0.02189   5.44512
   Y56        4.14920   0.00001   0.00000  -0.01423  -0.01400   4.13519
   Z56        4.24045   0.00003   0.00000  -0.00383  -0.00066   4.23979
   X57        7.12892   0.00014   0.00000   0.00073  -0.00035   7.12856
   Y57        1.63012  -0.00017   0.00000  -0.02682  -0.02616   1.60396
   Z57        2.96300  -0.00001   0.00000  -0.01168  -0.00908   2.95392
   X58        0.20099  -0.00004   0.00000   0.01300   0.01176   0.21275
   Y58        4.71277  -0.00008   0.00000   0.01326   0.01355   4.72632
   Z58        3.01381  -0.00001   0.00000   0.01573   0.01866   3.03247
   X59       -0.97277  -0.00002   0.00000   0.02433   0.02293  -0.94984
   Y59        5.58575   0.00002   0.00000   0.01996   0.01979   5.60554
   Z59        4.48417   0.00010   0.00000   0.02115   0.02424   4.50841
   X60        1.80660   0.00012   0.00000   0.01549   0.01421   1.82080
   Y60        6.00041   0.00009   0.00000   0.00797   0.00843   6.00884
   Z60        2.72642  -0.00004   0.00000   0.00292   0.00632   2.73274
   X61       -3.26745  -0.00002   0.00000  -0.03564  -0.03692  -3.30437
   Y61       -0.46321   0.00003   0.00000   0.01242   0.01146  -0.45175
   Z61        6.98365   0.00003   0.00000  -0.00494  -0.00368   6.97997
   X62       -1.62437  -0.00003   0.00000  -0.03806  -0.03940  -1.66377
   Y62        0.78543  -0.00003   0.00000   0.01604   0.01519   0.80061
   Z62        6.87494  -0.00001   0.00000   0.00165   0.00336   6.87830
   X63       -5.02493  -0.00001   0.00000  -0.03656  -0.03786  -5.06280
   Y63        0.56858   0.00000   0.00000   0.00789   0.00693   0.57551
   Z63        6.66690  -0.00001   0.00000  -0.01447  -0.01307   6.65383
   X64       -3.33410  -0.00001   0.00000  -0.04163  -0.04299  -3.37709
   Y64       -1.50528   0.00002   0.00000   0.01403   0.01258  -1.49270
   Z64        8.76189  -0.00000   0.00000  -0.00422  -0.00326   8.75862
   X65        5.85777  -0.00060   0.00000   0.00611   0.00511   5.86288
   Y65        4.27037  -0.00009   0.00000  -0.01926  -0.01790   4.25247
   Z65        0.16412  -0.00019   0.00000  -0.00654  -0.00331   0.16081
   X66        5.71415   0.00006   0.00000  -0.01327  -0.01408   5.70007
   Y66        2.93527   0.00026   0.00000  -0.01894  -0.01716   2.91811
   Z66       -1.41361   0.00032   0.00000  -0.00342  -0.00056  -1.41417
   X67        4.35289   0.00018   0.00000   0.01619   0.01514   4.36803
   Y67        5.65930  -0.00027   0.00000  -0.00817  -0.00680   5.65250
   Z67       -0.14815   0.00004   0.00000   0.00020   0.00370  -0.14446
   X68        8.40975   0.00050   0.00000   0.01909   0.01803   8.42779
   Y68        5.61653   0.00006   0.00000  -0.04231  -0.04079   5.57574
   Z68        0.09256   0.00014   0.00000  -0.02294  -0.01915   0.07341
   X69        8.68692   0.00006   0.00000   0.01929   0.01831   8.70523
   Y69        6.64277  -0.00002   0.00000  -0.04733  -0.04531   6.59745
   Z69       -1.68159  -0.00001   0.00000  -0.02585  -0.02177  -1.70336
   X70        8.57068  -0.00007   0.00000   0.03856   0.03732   8.60800
   Y70        6.97740  -0.00024   0.00000  -0.04199  -0.04088   6.93651
   Z70        1.64508  -0.00024   0.00000  -0.02650  -0.02233   1.62276
   X71        9.96657  -0.00009   0.00000   0.00829   0.00728   9.97385
   Y71        4.26392   0.00014   0.00000  -0.05486  -0.05332   4.21060
   Z71        0.29805  -0.00005   0.00000  -0.02911  -0.02558   0.27246
   X72        9.18250  -0.00000   0.00000   0.01265   0.01210   9.19460
   Y72       -4.13183   0.00001   0.00000   0.01564   0.01729  -4.11454
   Z72       -0.28087  -0.00002   0.00000  -0.00552  -0.00432  -0.28519
   X73       10.27312   0.00001   0.00000   0.01551   0.01483  10.28794
   Y73       -3.93086   0.00001   0.00000   0.03372   0.03496  -3.89590
   Z73        1.45836  -0.00002   0.00000  -0.00943  -0.00809   1.45026
   X74       10.10238   0.00001   0.00000   0.00945   0.00907  10.11145
   Y74       -5.54967   0.00000   0.00000   0.00146   0.00348  -5.54619
   Z74       -1.47627   0.00001   0.00000   0.00887   0.00975  -1.46653
   X75        8.86907   0.00000   0.00000   0.01326   0.01270   8.88177
   Y75       -1.63512  -0.00000   0.00000   0.00020   0.00223  -1.63289
   Z75       -1.70822  -0.00002   0.00000  -0.03258  -0.03073  -1.73895
   X76        8.45947   0.00001   0.00000   0.01753   0.01680   8.47627
   Y76       -0.12616  -0.00000   0.00000   0.01557   0.01722  -0.10894
   Z76       -0.35950  -0.00003   0.00000  -0.04855  -0.04632  -0.40582
   X77       10.52719   0.00001   0.00000   0.01208   0.01158  10.53877
   Y77       -1.10044  -0.00001   0.00000  -0.01413  -0.01171  -1.11215
   Z77       -2.81441  -0.00001   0.00000  -0.04128  -0.03916  -2.85357
         Item               Value     Threshold  Converged?
 Maximum Force            0.000600     0.000450     NO 
 RMS     Force            0.000087     0.000300     YES
 Maximum Displacement     0.063124     0.001800     NO 
 RMS     Displacement     0.019684     0.001200     NO 
 Predicted change in Energy=-4.488436D-05
 GradGradGradGradGradGradGradGradGradGradGradGradGradGradGradGradGradGrad

 Leave Link  103 at Thu Feb  7 16:39:34 2019, MaxMem=   104857600 cpu:              26.5 elap:               1.2
 (Enter /home/xinyan/g16/l9999.exe)
 1\1\GINC-TSE4\Force\RM062X\6-31G(d)\C27H41N3O5S1\STEVETSE\07-Feb-2019\
 0\\#p M062X/6-31G* em=gd3 force int=ultrafine\\Title\\0,1\C,-4.90132,0
 .22866,-0.47233\C,-5.06393,-1.03694,-1.31952\C,-3.71842,-1.47358,-1.91
 197\C,-2.73818,-1.71516,-0.77006\C,-2.52822,-0.42275,0.06158\C,-3.8699
 9,0.03623,0.64401\H,-3.82406,-2.37872,-2.51964\H,-5.46467,-1.84853,-0.
 69813\H,-5.78328,-0.86706,-2.12677\H,-4.57744,1.05354,-1.12026\H,-5.86
 524,0.5178,-0.04099\H,-3.13652,-2.49214,-0.11025\H,-2.19065,0.35358,-0
 .6371\H,-4.23202,-0.70625,1.36295\H,-3.70559,0.97798,1.17822\H,-3.3530
 7,-0.66974,-2.56534\N,-1.40394,-2.18899,-1.19289\C,-0.69912,-1.50082,-
 2.12937\C,-0.72568,-2.98967,-0.32726\C,0.65868,-1.55474,-2.20118\H,-1.
 27841,-0.87731,-2.79913\C,0.63177,-3.07291,-0.31874\H,-1.33217,-3.5056
 1,0.40921\C,1.39138,-2.25255,-1.19489\H,1.16388,-0.98365,-2.96809\H,1.
 10178,-3.66934,0.45031\N,2.71111,-2.14683,-1.08382\C,3.41505,-2.58865,
 0.13058\H,3.29679,-3.66611,0.27469\H,2.99648,-2.0393,0.98714\C,3.45705
 ,-1.09099,-1.77983\H,3.71741,-1.42122,-2.79295\H,2.83438,-0.1936,-1.83
 284\N,-1.43718,-0.54307,1.01553\S,-1.5354,-1.42595,2.38094\O,-2.73487,
 -2.26671,2.30863\O,-0.25056,-2.09659,2.60023\C,-0.73227,2.4892,0.31366
 \C,-0.25057,2.06166,-0.93363\C,-1.03001,2.19552,-2.08081\C,-2.30839,2.
 75107,-2.01557\C,-2.80114,3.17218,-0.7838\C,-2.01468,3.0428,0.36149\H,
 0.71457,1.57109,-0.97813\H,-0.62965,1.86965,-3.03854\H,-2.91011,2.8594
 9,-2.91384\H,-3.79453,3.60704,-0.71191\H,-2.40673,3.38708,1.31676\O,0.
 54598,1.28294,2.14567\H,-0.4396,-0.29844,0.73077\C,1.66997,0.55364,1.4
 8928\O,1.25873,-0.01357,0.37238\O,2.03729,-0.36657,2.50121\H,1.32473,-
 1.03201,2.51247\C,2.897,1.50067,1.39507\H,2.86985,2.19566,2.24395\H,3.
 77246,0.86262,1.56795\C,0.10636,2.49389,1.59484\H,-0.51477,2.95585,2.3
 7292\H,0.95601,3.17528,1.44276\C,-1.72906,-0.24512,3.69559\H,-0.85958,
 0.41563,3.63806\H,-2.65908,0.30088,3.52797\H,-1.76433,-0.79656,4.63659
 \C,3.0998,2.25978,0.08685\H,3.0238,1.55328,-0.74805\H,2.30345,2.99477,
 -0.0784\C,4.45025,2.97214,0.04898\H,4.59692,3.5152,-0.88986\H,4.53541,
 3.69228,0.87054\H,5.27408,2.25637,0.15772\C,4.85917,-2.18647,-0.14863\
 H,5.4363,-2.08012,0.77173\H,5.34595,-2.93676,-0.78121\C,4.69331,-0.865
 27,-0.90395\H,4.47656,-0.06676,-0.19024\H,5.57075,-0.58233,-1.48932\\V
 ersion=ES64L-G16RevA.03\State=1-A\HF=-1991.3588864\RMSD=9.635e-09\RMSF
 =8.738e-05\Dipole=-0.8475317,-0.6365709,-2.5770605\Quadrupole=8.045079
 4,-5.6386074,-2.406472,-9.1335274,-4.0344565,7.3687065\PG=C01 [X(C27H4
 1N3O5S1)]\\@


 Make no judgements where you have no compassion.
                               -- Anne McCaffrey
 Job cpu time:       0 days  1 hours 18 minutes 55.7 seconds.
 Elapsed time:       0 days  0 hours  3 minutes 18.6 seconds.
 File lengths (MBytes):  RWF=    216 Int=      0 D2E=      0 Chk=     25 Scr=      1
 Normal termination of Gaussian 16 at Thu Feb  7 16:39:34 2019.
