 Entering Gaussian System, Link 0=g16
 Input=C27N3H41SO5-206.gjf
 Output=C27N3H41SO5-206.log
 Initial command:
 /home/xinyan/g16/l1.exe "/local/home/tmp/Gau-17440.inp" -scrdir="/local/home/tmp/"
 Entering Link 1 = /home/xinyan/g16/l1.exe PID=     17441.
  
 Copyright (c) 1988,1990,1992,1993,1995,1998,2003,2009,2016,
            Gaussian, Inc.  All Rights Reserved.
  
 This is part of the Gaussian(R) 16 program.  It is based on
 the Gaussian(R) 09 system (copyright 2009, Gaussian, Inc.),
 the Gaussian(R) 03 system (copyright 2003, Gaussian, Inc.),
 the Gaussian(R) 98 system (copyright 1998, Gaussian, Inc.),
 the Gaussian(R) 94 system (copyright 1995, Gaussian, Inc.),
 the Gaussian 92(TM) system (copyright 1992, Gaussian, Inc.),
 the Gaussian 90(TM) system (copyright 1990, Gaussian, Inc.),
 the Gaussian 88(TM) system (copyright 1988, Gaussian, Inc.),
 the Gaussian 86(TM) system (copyright 1986, Carnegie Mellon
 University), and the Gaussian 82(TM) system (copyright 1983,
 Carnegie Mellon University). Gaussian is a federally registered
 trademark of Gaussian, Inc.
  
 This software contains proprietary and confidential information,
 including trade secrets, belonging to Gaussian, Inc.
  
 This software is provided under written license and may be
 used, copied, transmitted, or stored only in accord with that
 written license.
  
 The following legend is applicable only to US Government
 contracts under FAR:
  
                    RESTRICTED RIGHTS LEGEND
  
 Use, reproduction and disclosure by the US Government is
 subject to restrictions as set forth in subparagraphs (a)
 and (c) of the Commercial Computer Software - Restricted
 Rights clause in FAR 52.227-19.
  
 Gaussian, Inc.
 340 Quinnipiac St., Bldg. 40, Wallingford CT 06492
  
  
 ---------------------------------------------------------------
 Warning -- This program may not be used in any manner that
 competes with the business of Gaussian, Inc. or will provide
 assistance to any competitor of Gaussian, Inc.  The licensee
 of this program is prohibited from giving any competitor of
 Gaussian, Inc. access to this program.  By using this program,
 the user acknowledges that Gaussian, Inc. is engaged in the
 business of creating and licensing software in the field of
 computational chemistry and represents and warrants to the
 licensee that it is not a competitor of Gaussian, Inc. and that
 it will not use this program in any manner prohibited above.
 ---------------------------------------------------------------
  

 Cite this work as:
 Gaussian 16, Revision A.03,
 M. J. Frisch, G. W. Trucks, H. B. Schlegel, G. E. Scuseria, 
 M. A. Robb, J. R. Cheeseman, G. Scalmani, V. Barone, 
 G. A. Petersson, H. Nakatsuji, X. Li, M. Caricato, A. V. Marenich, 
 J. Bloino, B. G. Janesko, R. Gomperts, B. Mennucci, H. P. Hratchian, 
 J. V. Ortiz, A. F. Izmaylov, J. L. Sonnenberg, D. Williams-Young, 
 F. Ding, F. Lipparini, F. Egidi, J. Goings, B. Peng, A. Petrone, 
 T. Henderson, D. Ranasinghe, V. G. Zakrzewski, J. Gao, N. Rega, 
 G. Zheng, W. Liang, M. Hada, M. Ehara, K. Toyota, R. Fukuda, 
 J. Hasegawa, M. Ishida, T. Nakajima, Y. Honda, O. Kitao, H. Nakai, 
 T. Vreven, K. Throssell, J. A. Montgomery, Jr., J. E. Peralta, 
 F. Ogliaro, M. J. Bearpark, J. J. Heyd, E. N. Brothers, K. N. Kudin, 
 V. N. Staroverov, T. A. Keith, R. Kobayashi, J. Normand, 
 K. Raghavachari, A. P. Rendell, J. C. Burant, S. S. Iyengar, 
 J. Tomasi, M. Cossi, J. M. Millam, M. Klene, C. Adamo, R. Cammi, 
 J. W. Ochterski, R. L. Martin, K. Morokuma, O. Farkas, 
 J. B. Foresman, and D. J. Fox, Gaussian, Inc., Wallingford CT, 2016.
 
 ******************************************
 Gaussian 16:  ES64L-G16RevA.03 25-Dec-2016
                 7-Feb-2019 
 ******************************************
 %nproc=24
 Will use up to   24 processors via shared memory.
 ------------------------------------------
 #p M062X/6-31G* em=gd3 force int=ultrafine
 ------------------------------------------
 1/10=7,30=1,38=1/1,3;
 2/12=2,17=6,18=5,40=1/2;
 3/5=1,6=6,7=1,11=2,25=1,30=1,71=1,74=-55,75=-5,124=31/1,2,3;
 4//1;
 5/5=2,38=5/2;
 6/7=2,8=2,9=2,10=2,28=1/1;
 7/29=1/1,2,3,16;
 1/10=7,30=1/3;
 99//99;
 Leave Link    1 at Thu Feb  7 19:56:19 2019, MaxMem=           0 cpu:               2.5 elap:               0.1
 (Enter /home/xinyan/g16/l101.exe)
 -----
 Title
 -----
 Symbolic Z-matrix:
 Charge =  0 Multiplicity = 1
 C                    -4.94702   0.26225  -0.34884 
 C                    -5.11175  -1.00451  -1.19363 
 C                    -3.7659   -1.44197  -1.78421 
 C                    -2.78044  -1.68374  -0.64582 
 C                    -2.57283  -0.40171   0.20298 
 C                    -3.92151   0.06144   0.77144 
 H                    -3.87268  -2.34586  -2.39412 
 H                    -5.51472  -1.81395  -0.57079 
 H                    -5.82929  -0.8369   -2.00341 
 H                    -4.61063   1.08272  -0.998 
 H                    -5.91273   0.56138   0.07196 
 H                    -3.16434  -2.47462   0.00611 
 H                    -2.24183   0.37525  -0.50206 
 H                    -4.28581  -0.67771   1.49412 
 H                    -3.75361   1.00404   1.30603 
 H                    -3.40397  -0.63546  -2.43643 
 N                    -1.44489  -2.14565  -1.09287 
 C                    -0.77002  -1.474    -2.05681 
 C                    -0.7493   -2.95946  -0.26171 
 C                     0.58273  -1.57276  -2.20443 
 H                    -1.36121  -0.82472  -2.68958 
 C                     0.60555  -3.10303  -0.34096 
 H                    -1.32925  -3.45553   0.50892 
 C                     1.34505  -2.32979  -1.27048 
 H                     1.06288  -1.00766  -2.9925 
 H                     1.0915   -3.7232    0.39915 
 N                     2.68239  -2.30062  -1.25268 
 C                     3.42211  -2.82944  -0.09799 
 H                     3.29342  -3.91205  -0.0165 
 H                     3.04487  -2.34731   0.81488 
 C                     3.44664  -1.24282  -1.93592 
 H                     3.70863  -1.56512  -2.95059 
 H                     2.85215  -0.3267   -1.97794 
 N                    -1.46711  -0.53933   1.12791 
 S                    -1.52854  -1.4382    2.45405 
 O                    -2.70421  -2.325     2.43746 
 O                    -0.21274  -2.09003   2.63868 
 C                    -0.7794    2.54507   0.0957 
 C                    -0.22015   1.8899   -1.0106 
 C                    -0.86815   1.93306  -2.24309 
 C                    -2.09479   2.58667  -2.3789 
 C                    -2.66391   3.21344  -1.27314 
 C                    -2.00123   3.19419  -0.04895 
 H                     0.69656   1.31555  -0.88364 
 H                    -0.41845   1.44869  -3.10817 
 H                    -2.60236   2.61136  -3.33841 
 H                    -3.62193   3.71676  -1.35683 
 H                    -2.43889   3.67339   0.82346 
 O                     0.2023    1.16714   1.78495 
 H                    -0.59151   0.3726    1.32778 
 C                     2.24577   0.29745   1.32928 
 O                     1.9671   -0.13268   0.22268 
 O                     2.13299  -0.43172   2.44461 
 H                     1.4017   -1.08315   2.33236 
 C                     3.03108   1.57046   1.55146 
 H                     2.56968   2.14805   2.35986 
 H                     4.00875   1.24048   1.92886 
 C                    -0.12335   2.46637   1.45824 
 H                    -0.80401   2.92124   2.20123 
 H                     0.77628   3.11502   1.45744 
 C                    -1.65123  -0.28106   3.81148 
 H                    -0.8136    0.40949   3.67303 
 H                    -2.60502   0.24401   3.73544 
 H                    -1.57552  -0.8272    4.75278 
 C                     3.22487   2.41232   0.29251 
 H                     3.59657   1.76949  -0.51387 
 H                     2.26228   2.80146  -0.05836 
 C                     4.19506   3.56833   0.5283 
 H                     4.36867   4.14071  -0.38771 
 H                     3.81031   4.25916   1.28616 
 H                     5.16388   3.19797   0.88126 
 C                     4.86188  -2.41672  -0.38429 
 H                     5.4631   -2.37478   0.52597 
 H                     5.32693  -3.1262   -1.07663 
 C                     4.68202  -1.0518   -1.05129 
 H                     4.44943  -0.3027   -0.28921 
 H                     5.5547   -0.72004  -1.61721 
 
 ITRead=  0  0  0  0  0  0  0  0  0  0  0  0  0  0  0  0  0  0  0  0
 ITRead=  0  0  0  0  0  0  0  0  0  0  0  0  0  0  0  0  0  0  0  0
 ITRead=  0  0  0  0  0  0  0  0  0  0  0  0  0  0  0  0  0  0  0  0
 ITRead=  0  0  0  0  0  0  0  0  0  0  0  0  0  0  0  0  0
 MicOpt= -1 -1 -1 -1 -1 -1 -1 -1 -1 -1 -1 -1 -1 -1 -1 -1 -1 -1 -1 -1
 MicOpt= -1 -1 -1 -1 -1 -1 -1 -1 -1 -1 -1 -1 -1 -1 -1 -1 -1 -1 -1 -1
 MicOpt= -1 -1 -1 -1 -1 -1 -1 -1 -1 -1 -1 -1 -1 -1 -1 -1 -1 -1 -1 -1
 MicOpt= -1 -1 -1 -1 -1 -1 -1 -1 -1 -1 -1 -1 -1 -1 -1 -1 -1
 NAtoms=     77 NQM=       77 NQMF=       0 NMMI=      0 NMMIF=      0
                NMic=       0 NMicF=      0.
                    Isotopes and Nuclear Properties:
 (Nuclear quadrupole moments (NQMom) in fm**2, nuclear magnetic moments (NMagM)
  in nuclear magnetons)

  Atom         1           2           3           4           5           6           7           8           9          10
 IAtWgt=          12          12          12          12          12          12           1           1           1           1
 AtmWgt=  12.0000000  12.0000000  12.0000000  12.0000000  12.0000000  12.0000000   1.0078250   1.0078250   1.0078250   1.0078250
 NucSpn=           0           0           0           0           0           0           1           1           1           1
 AtZEff=  -0.0000000  -0.0000000  -0.0000000  -0.0000000  -0.0000000  -0.0000000  -0.0000000  -0.0000000  -0.0000000  -0.0000000
 NQMom=    0.0000000   0.0000000   0.0000000   0.0000000   0.0000000   0.0000000   0.0000000   0.0000000   0.0000000   0.0000000
 NMagM=    0.0000000   0.0000000   0.0000000   0.0000000   0.0000000   0.0000000   2.7928460   2.7928460   2.7928460   2.7928460
 AtZNuc=   6.0000000   6.0000000   6.0000000   6.0000000   6.0000000   6.0000000   1.0000000   1.0000000   1.0000000   1.0000000

  Atom        11          12          13          14          15          16          17          18          19          20
 IAtWgt=           1           1           1           1           1           1          14          12          12          12
 AtmWgt=   1.0078250   1.0078250   1.0078250   1.0078250   1.0078250   1.0078250  14.0030740  12.0000000  12.0000000  12.0000000
 NucSpn=           1           1           1           1           1           1           2           0           0           0
 AtZEff=  -0.0000000  -0.0000000  -0.0000000  -0.0000000  -0.0000000  -0.0000000  -0.0000000  -0.0000000  -0.0000000  -0.0000000
 NQMom=    0.0000000   0.0000000   0.0000000   0.0000000   0.0000000   0.0000000   2.0440000   0.0000000   0.0000000   0.0000000
 NMagM=    2.7928460   2.7928460   2.7928460   2.7928460   2.7928460   2.7928460   0.4037610   0.0000000   0.0000000   0.0000000
 AtZNuc=   1.0000000   1.0000000   1.0000000   1.0000000   1.0000000   1.0000000   7.0000000   6.0000000   6.0000000   6.0000000

  Atom        21          22          23          24          25          26          27          28          29          30
 IAtWgt=           1          12           1          12           1           1          14          12           1           1
 AtmWgt=   1.0078250  12.0000000   1.0078250  12.0000000   1.0078250   1.0078250  14.0030740  12.0000000   1.0078250   1.0078250
 NucSpn=           1           0           1           0           1           1           2           0           1           1
 AtZEff=  -0.0000000  -0.0000000  -0.0000000  -0.0000000  -0.0000000  -0.0000000  -0.0000000  -0.0000000  -0.0000000  -0.0000000
 NQMom=    0.0000000   0.0000000   0.0000000   0.0000000   0.0000000   0.0000000   2.0440000   0.0000000   0.0000000   0.0000000
 NMagM=    2.7928460   0.0000000   2.7928460   0.0000000   2.7928460   2.7928460   0.4037610   0.0000000   2.7928460   2.7928460
 AtZNuc=   1.0000000   6.0000000   1.0000000   6.0000000   1.0000000   1.0000000   7.0000000   6.0000000   1.0000000   1.0000000

  Atom        31          32          33          34          35          36          37          38          39          40
 IAtWgt=          12           1           1          14          32          16          16          12          12          12
 AtmWgt=  12.0000000   1.0078250   1.0078250  14.0030740  31.9720718  15.9949146  15.9949146  12.0000000  12.0000000  12.0000000
 NucSpn=           0           1           1           2           0           0           0           0           0           0
 AtZEff=  -0.0000000  -0.0000000  -0.0000000  -0.0000000  -0.0000000  -0.0000000  -0.0000000  -0.0000000  -0.0000000  -0.0000000
 NQMom=    0.0000000   0.0000000   0.0000000   2.0440000   0.0000000   0.0000000   0.0000000   0.0000000   0.0000000   0.0000000
 NMagM=    0.0000000   2.7928460   2.7928460   0.4037610   0.0000000   0.0000000   0.0000000   0.0000000   0.0000000   0.0000000
 AtZNuc=   6.0000000   1.0000000   1.0000000   7.0000000  16.0000000   8.0000000   8.0000000   6.0000000   6.0000000   6.0000000

  Atom        41          42          43          44          45          46          47          48          49          50
 IAtWgt=          12          12          12           1           1           1           1           1          16           1
 AtmWgt=  12.0000000  12.0000000  12.0000000   1.0078250   1.0078250   1.0078250   1.0078250   1.0078250  15.9949146   1.0078250
 NucSpn=           0           0           0           1           1           1           1           1           0           1
 AtZEff=  -0.0000000  -0.0000000  -0.0000000  -0.0000000  -0.0000000  -0.0000000  -0.0000000  -0.0000000  -0.0000000  -0.0000000
 NQMom=    0.0000000   0.0000000   0.0000000   0.0000000   0.0000000   0.0000000   0.0000000   0.0000000   0.0000000   0.0000000
 NMagM=    0.0000000   0.0000000   0.0000000   2.7928460   2.7928460   2.7928460   2.7928460   2.7928460   0.0000000   2.7928460
 AtZNuc=   6.0000000   6.0000000   6.0000000   1.0000000   1.0000000   1.0000000   1.0000000   1.0000000   8.0000000   1.0000000

  Atom        51          52          53          54          55          56          57          58          59          60
 IAtWgt=          12          16          16           1          12           1           1          12           1           1
 AtmWgt=  12.0000000  15.9949146  15.9949146   1.0078250  12.0000000   1.0078250   1.0078250  12.0000000   1.0078250   1.0078250
 NucSpn=           0           0           0           1           0           1           1           0           1           1
 AtZEff=  -0.0000000  -0.0000000  -0.0000000  -0.0000000  -0.0000000  -0.0000000  -0.0000000  -0.0000000  -0.0000000  -0.0000000
 NQMom=    0.0000000   0.0000000   0.0000000   0.0000000   0.0000000   0.0000000   0.0000000   0.0000000   0.0000000   0.0000000
 NMagM=    0.0000000   0.0000000   0.0000000   2.7928460   0.0000000   2.7928460   2.7928460   0.0000000   2.7928460   2.7928460
 AtZNuc=   6.0000000   8.0000000   8.0000000   1.0000000   6.0000000   1.0000000   1.0000000   6.0000000   1.0000000   1.0000000

  Atom        61          62          63          64          65          66          67          68          69          70
 IAtWgt=          12           1           1           1          12           1           1          12           1           1
 AtmWgt=  12.0000000   1.0078250   1.0078250   1.0078250  12.0000000   1.0078250   1.0078250  12.0000000   1.0078250   1.0078250
 NucSpn=           0           1           1           1           0           1           1           0           1           1
 AtZEff=  -0.0000000  -0.0000000  -0.0000000  -0.0000000  -0.0000000  -0.0000000  -0.0000000  -0.0000000  -0.0000000  -0.0000000
 NQMom=    0.0000000   0.0000000   0.0000000   0.0000000   0.0000000   0.0000000   0.0000000   0.0000000   0.0000000   0.0000000
 NMagM=    0.0000000   2.7928460   2.7928460   2.7928460   0.0000000   2.7928460   2.7928460   0.0000000   2.7928460   2.7928460
 AtZNuc=   6.0000000   1.0000000   1.0000000   1.0000000   6.0000000   1.0000000   1.0000000   6.0000000   1.0000000   1.0000000

  Atom        71          72          73          74          75          76          77
 IAtWgt=           1          12           1           1          12           1           1
 AtmWgt=   1.0078250  12.0000000   1.0078250   1.0078250  12.0000000   1.0078250   1.0078250
 NucSpn=           1           0           1           1           0           1           1
 AtZEff=  -0.0000000  -0.0000000  -0.0000000  -0.0000000  -0.0000000  -0.0000000  -0.0000000
 NQMom=    0.0000000   0.0000000   0.0000000   0.0000000   0.0000000   0.0000000   0.0000000
 NMagM=    2.7928460   0.0000000   2.7928460   2.7928460   0.0000000   2.7928460   2.7928460
 AtZNuc=   1.0000000   6.0000000   1.0000000   1.0000000   6.0000000   1.0000000   1.0000000
 Leave Link  101 at Thu Feb  7 19:56:19 2019, MaxMem=   104857600 cpu:               5.8 elap:               0.3
 (Enter /home/xinyan/g16/l103.exe)

 GradGradGradGradGradGradGradGradGradGradGradGradGradGradGradGradGradGrad
 Berny optimization.
 Initialization pass.
 Trust Radius=3.00D-01 FncErr=1.00D-07 GrdErr=1.00D-07 EigMax=2.50D+02 EigMin=1.00D-04
 Number of steps in this run=      2 maximum allowed number of steps=      2.
 GradGradGradGradGradGradGradGradGradGradGradGradGradGradGradGradGradGrad

 Leave Link  103 at Thu Feb  7 19:56:19 2019, MaxMem=   104857600 cpu:               1.6 elap:               0.1
 (Enter /home/xinyan/g16/l202.exe)
 Stoichiometry    C27H41N3O5S
 Framework group  C1[X(C27H41N3O5S)]
 Deg. of freedom   225
 Full point group                 C1      NOp   1
 Largest Abelian subgroup         C1      NOp   1
 Largest concise Abelian subgroup C1      NOp   1
                         Standard orientation:                         
 ---------------------------------------------------------------------
 Center     Atomic      Atomic             Coordinates (Angstroms)
 Number     Number       Type             X           Y           Z
 ---------------------------------------------------------------------
      1          6           0       -4.844600    0.390736   -0.506898
      2          6           0       -4.980111   -0.880538   -1.350098
      3          6           0       -3.624457   -1.287880   -1.939796
      4          6           0       -2.634032   -1.505607   -0.800863
      5          6           0       -2.456003   -0.218082    0.046337
      6          6           0       -3.815067    0.214851    0.613882
      7          1           0       -3.710389   -2.194755   -2.548569
      8          1           0       -5.364642   -1.698179   -0.726313
      9          1           0       -5.701079   -0.730408   -2.160263
     10          1           0       -4.526877    1.217848   -1.157033
     11          1           0       -5.817006    0.668255   -0.086712
     12          1           0       -2.999930   -2.304219   -0.148007
     13          1           0       -2.142659    0.565337   -0.659623
     14          1           0       -4.162571   -0.531507    1.337425
     15          1           0       -3.668896    1.161725    1.147299
     16          1           0       -3.280881   -0.474145   -2.592967
     17          7           0       -1.288155   -1.937445   -1.247002
     18          6           0       -0.628555   -1.251780   -2.211645
     19          6           0       -0.574369   -2.734080   -0.414632
     20          6           0        0.726138   -1.319786   -2.358818
     21          1           0       -1.234262   -0.616992   -2.845390
     22          6           0        0.783429   -2.846749   -0.493376
     23          1           0       -1.143035   -3.242288    0.356498
     24          6           0        1.505311   -2.058000   -1.423715
     25          1           0        1.193457   -0.744870   -3.147500
     26          1           0        1.283229   -3.454702    0.247646
     27          7           0        2.841631   -1.998250   -1.405635
     28          6           0        3.592936   -2.508547   -0.250091
     29          1           0        3.489001   -3.593710   -0.167240
     30          1           0        3.204533   -2.033996    0.662069
     31          6           0        3.581687   -0.924135   -2.090054
     32          1           0        3.851245   -1.241661   -3.104247
     33          1           0        2.966426   -0.021896   -2.133393
     34          7           0       -1.347672   -0.329210    0.971705
     35         16           0       -1.388896   -1.227551    2.298985
     36          8           0       -2.543987   -2.141010    2.283257
     37          8           0       -0.058592   -1.848902    2.484765
     38          6           0       -0.730360    2.768778   -0.064307
     39          6           0       -0.155988    2.125145   -1.169631
     40          6           0       -0.804477    2.151906   -2.402329
     41          6           0       -2.045699    2.777136   -2.539270
     42          6           0       -2.629289    3.392150   -1.434452
     43          6           0       -1.966668    3.389617   -0.210081
     44          1           0        0.773575    1.572059   -1.041716
     45          1           0       -0.343594    1.676833   -3.266679
     46          1           0       -2.553445    2.788991   -3.498931
     47          1           0       -3.598540    3.873335   -1.519016
     48          1           0       -2.415398    3.859806    0.661608
     49          8           0        0.282126    1.415808    1.626946
     50          1           0       -0.493196    0.602748    1.170610
     51          6           0        2.345060    0.592466    1.172878
     52          8           0        2.076588    0.154663    0.066766
     53          8           0        2.248677   -0.137663    2.289118
     54          1           0        1.532496   -0.805780    2.177533
     55          6           0        3.101011    1.883375    1.393607
     56          1           0        2.626316    2.451303    2.201154
     57          1           0        4.085867    1.576309    1.771663
     58          6           0       -0.073045    2.706836    1.298488
     59          1           0       -0.764121    3.146982    2.040731
     60          1           0        0.811525    3.375876    1.297067
     61          6           0       -1.538361   -0.071781    3.654897
     62          1           0       -0.716695    0.637555    3.515758
     63          1           0       -2.503882    0.431255    3.577956
     64          1           0       -1.450440   -0.614843    4.596916
     65          6           0        3.275845    2.727832    0.133622
     66          1           0        3.662355    2.092633   -0.671843
     67          1           0        2.304707    3.094421   -0.217976
     68          6           0        4.219299    3.906014    0.368155
     69          1           0        4.380026    4.481039   -0.548549
     70          1           0        3.818659    4.588840    1.125035
     71          1           0        5.196236    3.558345    0.721820
     72          6           0        5.022974   -2.063396   -0.536581
     73          1           0        5.622836   -2.006561    0.373767
     74          1           0        5.504301   -2.762947   -1.227898
     75          6           0        4.812143   -0.703798   -1.205378
     76          1           0        4.562291    0.040766   -0.444317
     77          1           0        5.677164   -0.352904   -1.771517
 ---------------------------------------------------------------------
 Rotational constants (GHZ):           0.1481924           0.0981926           0.0883637
 Leave Link  202 at Thu Feb  7 19:56:19 2019, MaxMem=   104857600 cpu:               2.4 elap:               0.1
 (Enter /home/xinyan/g16/l301.exe)
 Standard basis: 6-31G(d) (6D, 7F)
 Ernie: Thresh=  0.10000D-02 Tol=  0.10000D-05 Strict=F.
 There are   626 symmetry adapted cartesian basis functions of A   symmetry.
 There are   626 symmetry adapted basis functions of A   symmetry.
   626 basis functions,  1196 primitive gaussians,   626 cartesian basis functions
   140 alpha electrons      140 beta electrons
       nuclear repulsion energy      4933.6173728999 Hartrees.
 IExCor= 4336 DFT=T Ex+Corr=M062X ExCW=0 ScaHFX=  0.540000
 ScaDFX=  1.000000  1.000000  1.000000  1.000000 ScalE2=  1.000000  1.000000
 IRadAn=      5 IRanWt=     -1 IRanGd=            0 ICorTp=0 IEmpDi=131
 NAtoms=   77 NActive=   77 NUniq=   77 SFac= 1.00D+00 NAtFMM=   60 NAOKFM=T Big=T
 Integral buffers will be    131072 words long.
 Raffenetti 2 integral format.
 Two-electron integral symmetry is turned on.
 R6Disp:  Grimme-D3 Dispersion energy=       -0.0107141618 Hartrees.
 Nuclear repulsion after empirical dispersion term =     4933.6066587380 Hartrees.
 Leave Link  301 at Thu Feb  7 19:56:20 2019, MaxMem=   104857600 cpu:               1.9 elap:               0.1
 (Enter /home/xinyan/g16/l302.exe)
 NPDir=0 NMtPBC=     1 NCelOv=     1 NCel=       1 NClECP=     1 NCelD=      1
         NCelK=      1 NCelE2=     1 NClLst=     1 CellRange=     0.0.
 One-electron integrals computed using PRISM.
 One-electron integral symmetry used in STVInt
 PrsmSu:  requested number of processors reduced to:  23 ShMem   1 Linda.
 NBasis=   626 RedAO= T EigKep=  4.34D-04  NBF=   626
 NBsUse=   626 1.00D-06 EigRej= -1.00D+00 NBFU=   626
 Precomputing XC quadrature grid using
 IXCGrd= 4 IRadAn=           5 IRanWt=          -1 IRanGd=           0 AccXCQ= 0.00D+00.
 Generated NRdTot=       0 NPtTot=           0 NUsed=           0 NTot=          32
 NSgBfM=   617   616   616   617   617 MxSgAt=    77 MxSgA2=    77.
 Leave Link  302 at Thu Feb  7 19:56:24 2019, MaxMem=   104857600 cpu:              95.7 elap:               4.2
 (Enter /home/xinyan/g16/l303.exe)
 DipDrv:  MaxL=1.
 Leave Link  303 at Thu Feb  7 19:56:24 2019, MaxMem=   104857600 cpu:               5.0 elap:               0.3
 (Enter /home/xinyan/g16/l401.exe)
 ExpMin= 1.17D-01 ExpMax= 2.19D+04 ExpMxC= 3.30D+03 IAcc=3 IRadAn=         5 AccDes= 0.00D+00
 Harris functional with IExCor= 1009 and IRadAn=       5 diagonalized for initial guess.
 HarFok:  IExCor= 1009 AccDes= 0.00D+00 IRadAn=         5 IDoV= 1 UseB2=F ITyADJ=14
 ICtDFT=  3500011 ScaDFX=  1.000000  1.000000  1.000000  1.000000
 FoFCou: FMM=F IPFlag=           0 FMFlag=      100000 FMFlg1=        2001
         NFxFlg=           0 DoJE=T BraDBF=F KetDBF=T FulRan=T
         wScrn=  0.000000 ICntrl=       500 IOpCl=  0 I1Cent=   200000004 NGrid=           0
         NMat0=    1 NMatS0=      1 NMatT0=    0 NMatD0=    1 NMtDS0=    0 NMtDT0=    0
 Petite list used in FoFCou.
 Harris En= -1990.53330397910    
 JPrj=0 DoOrth=F DoCkMO=F.
 Leave Link  401 at Thu Feb  7 19:56:28 2019, MaxMem=   104857600 cpu:              98.5 elap:               4.1
 (Enter /home/xinyan/g16/l502.exe)
 Integral symmetry usage will be decided dynamically.
 Closed shell SCF:
 Using DIIS extrapolation, IDIIS=  1040.
 NGot=   104857600 LenX=   104051656 LenY=   103659154
 Requested convergence on RMS density matrix=1.00D-08 within 128 cycles.
 Requested convergence on MAX density matrix=1.00D-06.
 Requested convergence on             energy=1.00D-06.
 No special actions if energy rises.
 Fock matrices will be formed incrementally for  20 cycles.
 Integral accuracy reduced to 1.0D-05 until final iterations.

 Cycle   1  Pass 0  IDiag  1:
 FoFJK:  IHMeth= 1 ICntrl=       0 DoSepK=F KAlg= 0 I1Cent=           0 FoldK=F
 IRaf= 990000000 NMat=       1 IRICut=       1 DoRegI=T DoRafI=F ISym2E= 0 IDoP0=0 IntGTp=1.
 FoFCou: FMM=T IPFlag=           0 FMFlag=      100000 FMFlg1=        2001
         NFxFlg=           0 DoJE=F BraDBF=F KetDBF=F FulRan=T
         wScrn=  0.000000 ICntrl=         0 IOpCl=  0 I1Cent=           0 NGrid=           0
         NMat0=    1 NMatS0=      1 NMatT0=    0 NMatD0=    1 NMtDS0=    0 NMtDT0=    0
 Symmetry not used in FoFCou.
 FMM levels:  10  Number of levels for PrismC:   9
 E= -1990.31645589844    
 DIIS: error= 2.03D-02 at cycle   1 NSaved=   1.
 NSaved= 1 IEnMin= 1 EnMin= -1990.31645589844     IErMin= 1 ErrMin= 2.03D-02
 ErrMax= 2.03D-02  0.00D+00 EMaxC= 1.00D-01 BMatC= 1.23D+00 BMatP= 1.23D+00
 IDIUse=3 WtCom= 7.97D-01 WtEn= 2.03D-01
 Coeff-Com:  0.100D+01
 Coeff-En:   0.100D+01
 Coeff:      0.100D+01
 Gap=     0.380 Goal=   None    Shift=    0.000
 GapD=    0.380 DampG=1.000 DampE=0.500 DampFc=0.5000 IDamp=-1.
 Damping current iteration by 5.00D-01
 RMSDP=3.30D-03 MaxDP=3.31D-01              OVMax= 1.40D-01

 Cycle   2  Pass 0  IDiag  1:
 RMSU=  1.64D-03    CP:  9.88D-01
 E= -1990.83082943752     Delta-E=       -0.514373539081 Rises=F Damp=T
 DIIS: error= 7.70D-03 at cycle   2 NSaved=   2.
 NSaved= 2 IEnMin= 2 EnMin= -1990.83082943752     IErMin= 2 ErrMin= 7.70D-03
 ErrMax= 7.70D-03  0.00D+00 EMaxC= 1.00D-01 BMatC= 8.99D-02 BMatP= 1.23D+00
 IDIUse=3 WtCom= 9.23D-01 WtEn= 7.70D-02
 Coeff-Com: -0.372D-01 0.104D+01
 Coeff-En:   0.000D+00 0.100D+01
 Coeff:     -0.343D-01 0.103D+01
 Gap=     0.269 Goal=   None    Shift=    0.000
 RMSDP=8.04D-04 MaxDP=7.64D-02 DE=-5.14D-01 OVMax= 9.28D-02

 Cycle   3  Pass 0  IDiag  1:
 RMSU=  7.98D-04    CP:  9.81D-01  9.87D-01
 E= -1991.33173874750     Delta-E=       -0.500909309982 Rises=F Damp=F
 DIIS: error= 6.04D-03 at cycle   3 NSaved=   3.
 NSaved= 3 IEnMin= 3 EnMin= -1991.33173874750     IErMin= 3 ErrMin= 6.04D-03
 ErrMax= 6.04D-03  0.00D+00 EMaxC= 1.00D-01 BMatC= 4.12D-02 BMatP= 8.99D-02
 IDIUse=3 WtCom= 9.40D-01 WtEn= 6.04D-02
 Coeff-Com: -0.716D-01 0.419D+00 0.653D+00
 Coeff-En:   0.000D+00 0.000D+00 0.100D+01
 Coeff:     -0.672D-01 0.393D+00 0.674D+00
 Gap=     0.258 Goal=   None    Shift=    0.000
 RMSDP=4.47D-04 MaxDP=3.88D-02 DE=-5.01D-01 OVMax= 4.17D-02

 Cycle   4  Pass 0  IDiag  1:
 RMSU=  3.04D-04    CP:  9.84D-01  1.07D+00  6.32D-01
 E= -1991.35622206173     Delta-E=       -0.024483314234 Rises=F Damp=F
 DIIS: error= 3.22D-03 at cycle   4 NSaved=   4.
 NSaved= 4 IEnMin= 4 EnMin= -1991.35622206173     IErMin= 4 ErrMin= 3.22D-03
 ErrMax= 3.22D-03  0.00D+00 EMaxC= 1.00D-01 BMatC= 1.07D-02 BMatP= 4.12D-02
 IDIUse=3 WtCom= 9.68D-01 WtEn= 3.22D-02
 Coeff-Com: -0.274D-01 0.889D-01 0.367D+00 0.572D+00
 Coeff-En:   0.000D+00 0.000D+00 0.215D+00 0.785D+00
 Coeff:     -0.265D-01 0.861D-01 0.362D+00 0.578D+00
 Gap=     0.243 Goal=   None    Shift=    0.000
 RMSDP=1.87D-04 MaxDP=1.09D-02 DE=-2.45D-02 OVMax= 2.67D-02

 Cycle   5  Pass 0  IDiag  1:
 RMSU=  8.45D-05    CP:  9.83D-01  1.06D+00  7.47D-01  5.45D-01
 E= -1991.36500160422     Delta-E=       -0.008779542490 Rises=F Damp=F
 DIIS: error= 8.63D-04 at cycle   5 NSaved=   5.
 NSaved= 5 IEnMin= 5 EnMin= -1991.36500160422     IErMin= 5 ErrMin= 8.63D-04
 ErrMax= 8.63D-04  0.00D+00 EMaxC= 1.00D-01 BMatC= 5.72D-04 BMatP= 1.07D-02
 IDIUse=3 WtCom= 9.91D-01 WtEn= 8.63D-03
 Coeff-Com: -0.887D-02 0.207D-01 0.140D+00 0.287D+00 0.561D+00
 Coeff-En:   0.000D+00 0.000D+00 0.000D+00 0.000D+00 0.100D+01
 Coeff:     -0.879D-02 0.206D-01 0.139D+00 0.285D+00 0.565D+00
 Gap=     0.244 Goal=   None    Shift=    0.000
 RMSDP=4.99D-05 MaxDP=3.34D-03 DE=-8.78D-03 OVMax= 7.04D-03

 Cycle   6  Pass 0  IDiag  1:
 RMSU=  2.53D-05    CP:  9.83D-01  1.06D+00  7.49D-01  6.23D-01  5.77D-01
 E= -1991.36549843922     Delta-E=       -0.000496834998 Rises=F Damp=F
 DIIS: error= 2.58D-04 at cycle   6 NSaved=   6.
 NSaved= 6 IEnMin= 6 EnMin= -1991.36549843922     IErMin= 6 ErrMin= 2.58D-04
 ErrMax= 2.58D-04  0.00D+00 EMaxC= 1.00D-01 BMatC= 4.52D-05 BMatP= 5.72D-04
 IDIUse=3 WtCom= 9.97D-01 WtEn= 2.58D-03
 Coeff-Com: -0.155D-02 0.165D-02 0.309D-01 0.796D-01 0.274D+00 0.616D+00
 Coeff-En:   0.000D+00 0.000D+00 0.000D+00 0.000D+00 0.000D+00 0.100D+01
 Coeff:     -0.154D-02 0.165D-02 0.308D-01 0.794D-01 0.273D+00 0.616D+00
 Gap=     0.244 Goal=   None    Shift=    0.000
 RMSDP=1.33D-05 MaxDP=7.57D-04 DE=-4.97D-04 OVMax= 2.34D-03

 Cycle   7  Pass 0  IDiag  1:
 RMSU=  8.65D-06    CP:  9.83D-01  1.06D+00  7.52D-01  6.22D-01  6.52D-01
                    CP:  7.05D-01
 E= -1991.36554260017     Delta-E=       -0.000044160953 Rises=F Damp=F
 DIIS: error= 4.71D-05 at cycle   7 NSaved=   7.
 NSaved= 7 IEnMin= 7 EnMin= -1991.36554260017     IErMin= 7 ErrMin= 4.71D-05
 ErrMax= 4.71D-05  0.00D+00 EMaxC= 1.00D-01 BMatC= 3.46D-06 BMatP= 4.52D-05
 IDIUse=1 WtCom= 1.00D+00 WtEn= 0.00D+00
 Coeff-Com:  0.248D-03-0.143D-02-0.110D-02 0.559D-02 0.660D-01 0.267D+00
 Coeff-Com:  0.664D+00
 Coeff:      0.248D-03-0.143D-02-0.110D-02 0.559D-02 0.660D-01 0.267D+00
 Coeff:      0.664D+00
 Gap=     0.244 Goal=   None    Shift=    0.000
 RMSDP=4.42D-06 MaxDP=2.29D-04 DE=-4.42D-05 OVMax= 4.48D-04

 Initial convergence to 1.0D-05 achieved.  Increase integral accuracy.
 Cycle   8  Pass 1  IDiag  1:
 E= -1991.36573910458     Delta-E=       -0.000196504412 Rises=F Damp=F
 DIIS: error= 1.92D-04 at cycle   1 NSaved=   1.
 NSaved= 1 IEnMin= 1 EnMin= -1991.36573910458     IErMin= 1 ErrMin= 1.92D-04
 ErrMax= 1.92D-04  0.00D+00 EMaxC= 1.00D-01 BMatC= 1.32D-05 BMatP= 1.32D-05
 IDIUse=3 WtCom= 9.98D-01 WtEn= 1.92D-03
 Coeff-Com:  0.100D+01
 Coeff-En:   0.100D+01
 Coeff:      0.100D+01
 Gap=     0.244 Goal=   None    Shift=    0.000
 RMSDP=4.42D-06 MaxDP=2.29D-04 DE=-1.97D-04 OVMax= 5.65D-04

 Cycle   9  Pass 1  IDiag  1:
 RMSU=  7.40D-05    CP:  1.00D+00
 E= -1991.36575118016     Delta-E=       -0.000012075579 Rises=F Damp=F
 DIIS: error= 2.55D-05 at cycle   2 NSaved=   2.
 NSaved= 2 IEnMin= 2 EnMin= -1991.36575118016     IErMin= 2 ErrMin= 2.55D-05
 ErrMax= 2.55D-05  0.00D+00 EMaxC= 1.00D-01 BMatC= 7.46D-07 BMatP= 1.32D-05
 IDIUse=1 WtCom= 1.00D+00 WtEn= 0.00D+00
 Coeff-Com:  0.620D-01 0.938D+00
 Coeff:      0.620D-01 0.938D+00
 Gap=     0.244 Goal=   None    Shift=    0.000
 RMSDP=3.95D-06 MaxDP=2.28D-04 DE=-1.21D-05 OVMax= 4.52D-04

 Cycle  10  Pass 1  IDiag  1:
 RMSU=  3.33D-06    CP:  1.00D+00  1.03D+00
 E= -1991.36575077487     Delta-E=        0.000000405292 Rises=F Damp=F
 DIIS: error= 3.69D-05 at cycle   3 NSaved=   3.
 NSaved= 3 IEnMin= 2 EnMin= -1991.36575118016     IErMin= 2 ErrMin= 2.55D-05
 ErrMax= 3.69D-05  0.00D+00 EMaxC= 1.00D-01 BMatC= 1.23D-06 BMatP= 7.46D-07
 IDIUse=1 WtCom= 1.00D+00 WtEn= 0.00D+00
 Coeff-Com: -0.154D-01 0.568D+00 0.447D+00
 Coeff:     -0.154D-01 0.568D+00 0.447D+00
 Gap=     0.244 Goal=   None    Shift=    0.000
 RMSDP=1.84D-06 MaxDP=1.40D-04 DE= 4.05D-07 OVMax= 3.08D-04

 Cycle  11  Pass 1  IDiag  1:
 RMSU=  6.24D-07    CP:  1.00D+00  1.03D+00  4.87D-01
 E= -1991.36575184684     Delta-E=       -0.000001071971 Rises=F Damp=F
 DIIS: error= 4.33D-06 at cycle   4 NSaved=   4.
 NSaved= 4 IEnMin= 4 EnMin= -1991.36575184684     IErMin= 4 ErrMin= 4.33D-06
 ErrMax= 4.33D-06  0.00D+00 EMaxC= 1.00D-01 BMatC= 1.04D-08 BMatP= 7.46D-07
 IDIUse=1 WtCom= 1.00D+00 WtEn= 0.00D+00
 Coeff-Com: -0.814D-02 0.253D+00 0.214D+00 0.541D+00
 Coeff:     -0.814D-02 0.253D+00 0.214D+00 0.541D+00
 Gap=     0.244 Goal=   None    Shift=    0.000
 RMSDP=2.19D-07 MaxDP=1.20D-05 DE=-1.07D-06 OVMax= 2.69D-05

 Cycle  12  Pass 1  IDiag  1:
 RMSU=  2.00D-07    CP:  1.00D+00  1.03D+00  5.01D-01  8.81D-01
 E= -1991.36575185656     Delta-E=       -0.000000009712 Rises=F Damp=F
 DIIS: error= 1.01D-06 at cycle   5 NSaved=   5.
 NSaved= 5 IEnMin= 5 EnMin= -1991.36575185656     IErMin= 5 ErrMin= 1.01D-06
 ErrMax= 1.01D-06  0.00D+00 EMaxC= 1.00D-01 BMatC= 9.77D-10 BMatP= 1.04D-08
 IDIUse=1 WtCom= 1.00D+00 WtEn= 0.00D+00
 Coeff-Com: -0.369D-03-0.555D-02 0.463D-02 0.208D+00 0.793D+00
 Coeff:     -0.369D-03-0.555D-02 0.463D-02 0.208D+00 0.793D+00
 Gap=     0.244 Goal=   None    Shift=    0.000
 RMSDP=9.41D-08 MaxDP=4.43D-06 DE=-9.71D-09 OVMax= 1.28D-05

 Cycle  13  Pass 1  IDiag  1:
 RMSU=  6.90D-08    CP:  1.00D+00  1.03D+00  5.06D-01  9.70D-01  8.84D-01
 E= -1991.36575185761     Delta-E=       -0.000000001052 Rises=F Damp=F
 DIIS: error= 5.41D-07 at cycle   6 NSaved=   6.
 NSaved= 6 IEnMin= 6 EnMin= -1991.36575185761     IErMin= 6 ErrMin= 5.41D-07
 ErrMax= 5.41D-07  0.00D+00 EMaxC= 1.00D-01 BMatC= 2.65D-10 BMatP= 9.77D-10
 IDIUse=1 WtCom= 1.00D+00 WtEn= 0.00D+00
 Coeff-Com:  0.102D-02-0.409D-01-0.284D-01 0.326D-01 0.429D+00 0.606D+00
 Coeff:      0.102D-02-0.409D-01-0.284D-01 0.326D-01 0.429D+00 0.606D+00
 Gap=     0.244 Goal=   None    Shift=    0.000
 RMSDP=3.57D-08 MaxDP=2.78D-06 DE=-1.05D-09 OVMax= 3.87D-06

 Cycle  14  Pass 1  IDiag  1:
 RMSU=  2.71D-08    CP:  1.00D+00  1.03D+00  5.08D-01  9.88D-01  9.67D-01
                    CP:  8.67D-01
 E= -1991.36575185790     Delta-E=       -0.000000000293 Rises=F Damp=F
 DIIS: error= 1.57D-07 at cycle   7 NSaved=   7.
 NSaved= 7 IEnMin= 7 EnMin= -1991.36575185790     IErMin= 7 ErrMin= 1.57D-07
 ErrMax= 1.57D-07  0.00D+00 EMaxC= 1.00D-01 BMatC= 1.86D-11 BMatP= 2.65D-10
 IDIUse=1 WtCom= 1.00D+00 WtEn= 0.00D+00
 Coeff-Com:  0.451D-03-0.160D-01-0.114D-01-0.933D-02 0.912D-01 0.245D+00
 Coeff-Com:  0.700D+00
 Coeff:      0.451D-03-0.160D-01-0.114D-01-0.933D-02 0.912D-01 0.245D+00
 Coeff:      0.700D+00
 Gap=     0.244 Goal=   None    Shift=    0.000
 RMSDP=1.18D-08 MaxDP=7.38D-07 DE=-2.93D-10 OVMax= 1.17D-06

 Cycle  15  Pass 1  IDiag  1:
 RMSU=  8.71D-09    CP:  1.00D+00  1.03D+00  5.08D-01  9.92D-01  9.79D-01
                    CP:  9.61D-01  1.06D+00
 E= -1991.36575185793     Delta-E=       -0.000000000028 Rises=F Damp=F
 DIIS: error= 5.26D-08 at cycle   8 NSaved=   8.
 NSaved= 8 IEnMin= 8 EnMin= -1991.36575185793     IErMin= 8 ErrMin= 5.26D-08
 ErrMax= 5.26D-08  0.00D+00 EMaxC= 1.00D-01 BMatC= 2.73D-12 BMatP= 1.86D-11
 IDIUse=1 WtCom= 1.00D+00 WtEn= 0.00D+00
 Coeff-Com: -0.334D-04 0.213D-02 0.156D-02-0.113D-01-0.531D-01-0.249D-01
 Coeff-Com:  0.275D+00 0.811D+00
 Coeff:     -0.334D-04 0.213D-02 0.156D-02-0.113D-01-0.531D-01-0.249D-01
 Coeff:      0.275D+00 0.811D+00
 Gap=     0.244 Goal=   None    Shift=    0.000
 RMSDP=5.19D-09 MaxDP=4.08D-07 DE=-2.82D-11 OVMax= 6.97D-07

 SCF Done:  E(RM062X) =  -1991.36575186     A.U. after   15 cycles
            NFock= 15  Conv=0.52D-08     -V/T= 2.0075
 KE= 1.976510877494D+03 PE=-1.451971045115D+04 EE= 5.618227163061D+03
 Leave Link  502 at Thu Feb  7 19:59:07 2019, MaxMem=   104857600 cpu:            3795.0 elap:             158.4
 (Enter /home/xinyan/g16/l601.exe)
 Copying SCF densities to generalized density rwf, IOpCl= 0 IROHF=0.

 **********************************************************************

            Population analysis using the SCF density.

 **********************************************************************

 Orbital symmetries:
       Occupied  (A) (A) (A) (A) (A) (A) (A) (A) (A) (A) (A) (A)
                 (A) (A) (A) (A) (A) (A) (A) (A) (A) (A) (A) (A)
                 (A) (A) (A) (A) (A) (A) (A) (A) (A) (A) (A) (A)
                 (A) (A) (A) (A) (A) (A) (A) (A) (A) (A) (A) (A)
                 (A) (A) (A) (A) (A) (A) (A) (A) (A) (A) (A) (A)
                 (A) (A) (A) (A) (A) (A) (A) (A) (A) (A) (A) (A)
                 (A) (A) (A) (A) (A) (A) (A) (A) (A) (A) (A) (A)
                 (A) (A) (A) (A) (A) (A) (A) (A) (A) (A) (A) (A)
                 (A) (A) (A) (A) (A) (A) (A) (A) (A) (A) (A) (A)
                 (A) (A) (A) (A) (A) (A) (A) (A) (A) (A) (A) (A)
                 (A) (A) (A) (A) (A) (A) (A) (A) (A) (A) (A) (A)
                 (A) (A) (A) (A) (A) (A) (A) (A)
       Virtual   (A) (A) (A) (A) (A) (A) (A) (A) (A) (A) (A) (A)
                 (A) (A) (A) (A) (A) (A) (A) (A) (A) (A) (A) (A)
                 (A) (A) (A) (A) (A) (A) (A) (A) (A) (A) (A) (A)
                 (A) (A) (A) (A) (A) (A) (A) (A) (A) (A) (A) (A)
                 (A) (A) (A) (A) (A) (A) (A) (A) (A) (A) (A) (A)
                 (A) (A) (A) (A) (A) (A) (A) (A) (A) (A) (A) (A)
                 (A) (A) (A) (A) (A) (A) (A) (A) (A) (A) (A) (A)
                 (A) (A) (A) (A) (A) (A) (A) (A) (A) (A) (A) (A)
                 (A) (A) (A) (A) (A) (A) (A) (A) (A) (A) (A) (A)
                 (A) (A) (A) (A) (A) (A) (A) (A) (A) (A) (A) (A)
                 (A) (A) (A) (A) (A) (A) (A) (A) (A) (A) (A) (A)
                 (A) (A) (A) (A) (A) (A) (A) (A) (A) (A) (A) (A)
                 (A) (A) (A) (A) (A) (A) (A) (A) (A) (A) (A) (A)
                 (A) (A) (A) (A) (A) (A) (A) (A) (A) (A) (A) (A)
                 (A) (A) (A) (A) (A) (A) (A) (A) (A) (A) (A) (A)
                 (A) (A) (A) (A) (A) (A) (A) (A) (A) (A) (A) (A)
                 (A) (A) (A) (A) (A) (A) (A) (A) (A) (A) (A) (A)
                 (A) (A) (A) (A) (A) (A) (A) (A) (A) (A) (A) (A)
                 (A) (A) (A) (A) (A) (A) (A) (A) (A) (A) (A) (A)
                 (A) (A) (A) (A) (A) (A) (A) (A) (A) (A) (A) (A)
                 (A) (A) (A) (A) (A) (A) (A) (A) (A) (A) (A) (A)
                 (A) (A) (A) (A) (A) (A) (A) (A) (A) (A) (A) (A)
                 (A) (A) (A) (A) (A) (A) (A) (A) (A) (A) (A) (A)
                 (A) (A) (A) (A) (A) (A) (A) (A) (A) (A) (A) (A)
                 (A) (A) (A) (A) (A) (A) (A) (A) (A) (A) (A) (A)
                 (A) (A) (A) (A) (A) (A) (A) (A) (A) (A) (A) (A)
                 (A) (A) (A) (A) (A) (A) (A) (A) (A) (A) (A) (A)
                 (A) (A) (A) (A) (A) (A) (A) (A) (A) (A) (A) (A)
                 (A) (A) (A) (A) (A) (A) (A) (A) (A) (A) (A) (A)
                 (A) (A) (A) (A) (A) (A) (A) (A) (A) (A) (A) (A)
                 (A) (A) (A) (A) (A) (A) (A) (A) (A) (A) (A) (A)
                 (A) (A) (A) (A) (A) (A) (A) (A) (A) (A) (A) (A)
                 (A) (A) (A) (A) (A) (A) (A) (A) (A) (A) (A) (A)
                 (A) (A) (A) (A) (A) (A) (A) (A) (A) (A) (A) (A)
                 (A) (A) (A) (A) (A) (A) (A) (A) (A) (A) (A) (A)
                 (A) (A) (A) (A) (A) (A) (A) (A) (A) (A) (A) (A)
                 (A) (A) (A) (A) (A) (A) (A) (A) (A) (A) (A) (A)
                 (A) (A) (A) (A) (A) (A) (A) (A) (A) (A) (A) (A)
                 (A) (A) (A) (A) (A) (A) (A) (A) (A) (A) (A) (A)
                 (A) (A) (A) (A) (A) (A) (A) (A) (A) (A) (A) (A)
                 (A) (A) (A) (A) (A) (A)
 The electronic state is 1-A.
 Alpha  occ. eigenvalues --  -90.11651 -19.62911 -19.59669 -19.59557 -19.59121
 Alpha  occ. eigenvalues --  -19.54882 -14.85076 -14.80530 -14.71293 -10.65501
 Alpha  occ. eigenvalues --  -10.63413 -10.62649 -10.62011 -10.59856 -10.58964
 Alpha  occ. eigenvalues --  -10.58831 -10.57977 -10.57644 -10.57051 -10.55982
 Alpha  occ. eigenvalues --  -10.55836 -10.55641 -10.55532 -10.54936 -10.54668
 Alpha  occ. eigenvalues --  -10.54595 -10.54503 -10.54077 -10.53950 -10.53883
 Alpha  occ. eigenvalues --  -10.53662 -10.53303 -10.53153 -10.53098 -10.53055
 Alpha  occ. eigenvalues --  -10.52589  -8.42634  -6.34863  -6.34785  -6.34701
 Alpha  occ. eigenvalues --   -1.19315  -1.18360  -1.13250  -1.09642  -1.08791
 Alpha  occ. eigenvalues --   -1.07572  -1.05528  -0.98701  -0.95184  -0.94757
 Alpha  occ. eigenvalues --   -0.92788  -0.90090  -0.88731  -0.87949  -0.84801
 Alpha  occ. eigenvalues --   -0.84457  -0.84024  -0.83941  -0.83004  -0.80893
 Alpha  occ. eigenvalues --   -0.78965  -0.76542  -0.75792  -0.72736  -0.71510
 Alpha  occ. eigenvalues --   -0.70848  -0.68967  -0.68620  -0.68414  -0.67598
 Alpha  occ. eigenvalues --   -0.65540  -0.64773  -0.64127  -0.63086  -0.62337
 Alpha  occ. eigenvalues --   -0.60422  -0.59816  -0.58479  -0.58230  -0.56506
 Alpha  occ. eigenvalues --   -0.56013  -0.55693  -0.54954  -0.54500  -0.53754
 Alpha  occ. eigenvalues --   -0.53494  -0.53280  -0.52582  -0.51905  -0.51537
 Alpha  occ. eigenvalues --   -0.51104  -0.51057  -0.50687  -0.50418  -0.49923
 Alpha  occ. eigenvalues --   -0.49709  -0.49234  -0.48563  -0.48400  -0.47540
 Alpha  occ. eigenvalues --   -0.47235  -0.46930  -0.46794  -0.46315  -0.46117
 Alpha  occ. eigenvalues --   -0.45767  -0.45295  -0.44389  -0.43586  -0.43492
 Alpha  occ. eigenvalues --   -0.43041  -0.42525  -0.42060  -0.41691  -0.41623
 Alpha  occ. eigenvalues --   -0.41176  -0.40692  -0.40339  -0.40115  -0.39534
 Alpha  occ. eigenvalues --   -0.39331  -0.39003  -0.38845  -0.38713  -0.37835
 Alpha  occ. eigenvalues --   -0.37531  -0.36889  -0.36311  -0.35621  -0.34917
 Alpha  occ. eigenvalues --   -0.34382  -0.33439  -0.32766  -0.31160  -0.29599
 Alpha  occ. eigenvalues --   -0.29243  -0.28533  -0.27543  -0.26750  -0.25702
 Alpha virt. eigenvalues --   -0.01326   0.00471   0.03580   0.04282   0.09959
 Alpha virt. eigenvalues --    0.10203   0.11195   0.11556   0.12686   0.13401
 Alpha virt. eigenvalues --    0.13804   0.14334   0.15177   0.15342   0.15668
 Alpha virt. eigenvalues --    0.16087   0.16270   0.16660   0.17164   0.18015
 Alpha virt. eigenvalues --    0.18130   0.18286   0.18573   0.18966   0.19207
 Alpha virt. eigenvalues --    0.19328   0.19558   0.19684   0.20045   0.20434
 Alpha virt. eigenvalues --    0.20649   0.20799   0.21378   0.21482   0.21833
 Alpha virt. eigenvalues --    0.22124   0.22439   0.22669   0.22956   0.23278
 Alpha virt. eigenvalues --    0.23443   0.24054   0.24166   0.24406   0.24525
 Alpha virt. eigenvalues --    0.24740   0.25148   0.25564   0.25766   0.26500
 Alpha virt. eigenvalues --    0.27058   0.27312   0.27893   0.28127   0.28472
 Alpha virt. eigenvalues --    0.28515   0.29414   0.30027   0.30265   0.30505
 Alpha virt. eigenvalues --    0.30734   0.31251   0.31772   0.32359   0.32804
 Alpha virt. eigenvalues --    0.33408   0.34072   0.34342   0.35303   0.35839
 Alpha virt. eigenvalues --    0.36202   0.36581   0.37440   0.37833   0.38250
 Alpha virt. eigenvalues --    0.39795   0.41006   0.41207   0.43131   0.43264
 Alpha virt. eigenvalues --    0.45470   0.46607   0.47148   0.47436   0.49491
 Alpha virt. eigenvalues --    0.50582   0.51979   0.52605   0.53679   0.55395
 Alpha virt. eigenvalues --    0.55542   0.55750   0.56764   0.57024   0.57417
 Alpha virt. eigenvalues --    0.58626   0.58846   0.59017   0.59380   0.59619
 Alpha virt. eigenvalues --    0.59856   0.60405   0.60590   0.60965   0.61319
 Alpha virt. eigenvalues --    0.61469   0.61770   0.62169   0.62381   0.62826
 Alpha virt. eigenvalues --    0.63259   0.63624   0.64345   0.64878   0.65307
 Alpha virt. eigenvalues --    0.66019   0.66474   0.66920   0.67271   0.67868
 Alpha virt. eigenvalues --    0.68359   0.69026   0.69365   0.69773   0.70468
 Alpha virt. eigenvalues --    0.71118   0.71577   0.71788   0.72219   0.72697
 Alpha virt. eigenvalues --    0.73279   0.73864   0.74303   0.74713   0.75131
 Alpha virt. eigenvalues --    0.75573   0.76578   0.76969   0.77184   0.77842
 Alpha virt. eigenvalues --    0.78186   0.79002   0.79544   0.80492   0.81135
 Alpha virt. eigenvalues --    0.81442   0.82108   0.82130   0.83162   0.83768
 Alpha virt. eigenvalues --    0.84872   0.85291   0.85357   0.85652   0.86696
 Alpha virt. eigenvalues --    0.87145   0.87601   0.88007   0.89002   0.89570
 Alpha virt. eigenvalues --    0.89989   0.90234   0.90792   0.90978   0.91214
 Alpha virt. eigenvalues --    0.91650   0.91869   0.92144   0.92812   0.93190
 Alpha virt. eigenvalues --    0.93592   0.93900   0.94081   0.94708   0.94848
 Alpha virt. eigenvalues --    0.95741   0.96096   0.96289   0.96521   0.97041
 Alpha virt. eigenvalues --    0.97218   0.97329   0.97848   0.98229   0.98318
 Alpha virt. eigenvalues --    0.98657   0.99100   0.99391   0.99465   0.99799
 Alpha virt. eigenvalues --    1.00558   1.00901   1.01335   1.01701   1.02003
 Alpha virt. eigenvalues --    1.02656   1.02794   1.03910   1.04354   1.04557
 Alpha virt. eigenvalues --    1.05068   1.06220   1.06736   1.06967   1.07803
 Alpha virt. eigenvalues --    1.08388   1.09462   1.10503   1.11072   1.11853
 Alpha virt. eigenvalues --    1.12002   1.12415   1.13028   1.13705   1.14338
 Alpha virt. eigenvalues --    1.15227   1.16187   1.16650   1.17642   1.18415
 Alpha virt. eigenvalues --    1.18935   1.19741   1.20375   1.21012   1.21860
 Alpha virt. eigenvalues --    1.22081   1.23048   1.24470   1.25056   1.25559
 Alpha virt. eigenvalues --    1.26098   1.26535   1.27063   1.27771   1.29095
 Alpha virt. eigenvalues --    1.30513   1.30927   1.31550   1.32778   1.32951
 Alpha virt. eigenvalues --    1.33494   1.34235   1.34757   1.35721   1.36648
 Alpha virt. eigenvalues --    1.37581   1.38173   1.39145   1.41173   1.41916
 Alpha virt. eigenvalues --    1.43010   1.43750   1.44610   1.45262   1.46045
 Alpha virt. eigenvalues --    1.46808   1.47550   1.48475   1.49725   1.49995
 Alpha virt. eigenvalues --    1.50754   1.51161   1.51552   1.52386   1.53331
 Alpha virt. eigenvalues --    1.53689   1.54040   1.54865   1.55487   1.56141
 Alpha virt. eigenvalues --    1.56329   1.57851   1.58034   1.58648   1.59059
 Alpha virt. eigenvalues --    1.60903   1.61665   1.63339   1.64911   1.66053
 Alpha virt. eigenvalues --    1.67496   1.69049   1.70053   1.70608   1.72108
 Alpha virt. eigenvalues --    1.73049   1.74453   1.75147   1.76175   1.76890
 Alpha virt. eigenvalues --    1.78481   1.79122   1.80175   1.81293   1.81644
 Alpha virt. eigenvalues --    1.81969   1.83568   1.84548   1.84928   1.85602
 Alpha virt. eigenvalues --    1.86160   1.86761   1.87308   1.88395   1.88920
 Alpha virt. eigenvalues --    1.89305   1.89747   1.90488   1.91139   1.91408
 Alpha virt. eigenvalues --    1.91964   1.92128   1.92792   1.93650   1.93899
 Alpha virt. eigenvalues --    1.94273   1.95122   1.95334   1.95789   1.96346
 Alpha virt. eigenvalues --    1.97467   1.97813   1.98093   1.98585   1.99180
 Alpha virt. eigenvalues --    1.99822   2.00704   2.01842   2.02127   2.02521
 Alpha virt. eigenvalues --    2.03691   2.03808   2.04547   2.04992   2.05664
 Alpha virt. eigenvalues --    2.06099   2.07018   2.07428   2.07810   2.08307
 Alpha virt. eigenvalues --    2.08930   2.09429   2.10387   2.11159   2.11551
 Alpha virt. eigenvalues --    2.11785   2.13047   2.13588   2.13755   2.14872
 Alpha virt. eigenvalues --    2.14996   2.16342   2.16588   2.17299   2.18562
 Alpha virt. eigenvalues --    2.19289   2.19749   2.20743   2.21121   2.22114
 Alpha virt. eigenvalues --    2.22687   2.22891   2.23286   2.24084   2.24515
 Alpha virt. eigenvalues --    2.25464   2.25698   2.26407   2.27934   2.28622
 Alpha virt. eigenvalues --    2.29192   2.29336   2.30293   2.30966   2.31960
 Alpha virt. eigenvalues --    2.32791   2.33961   2.34841   2.35181   2.35647
 Alpha virt. eigenvalues --    2.36141   2.36988   2.37647   2.38172   2.38816
 Alpha virt. eigenvalues --    2.39134   2.39903   2.40473   2.40800   2.42196
 Alpha virt. eigenvalues --    2.42713   2.44767   2.45109   2.46176   2.47124
 Alpha virt. eigenvalues --    2.47971   2.48818   2.50437   2.51010   2.51927
 Alpha virt. eigenvalues --    2.53283   2.55485   2.56104   2.56695   2.58726
 Alpha virt. eigenvalues --    2.59987   2.60399   2.61617   2.62469   2.62637
 Alpha virt. eigenvalues --    2.64865   2.65137   2.65854   2.67596   2.67720
 Alpha virt. eigenvalues --    2.68469   2.69117   2.69515   2.71146   2.71925
 Alpha virt. eigenvalues --    2.72414   2.74150   2.75076   2.76283   2.77631
 Alpha virt. eigenvalues --    2.78632   2.78944   2.79688   2.80058   2.81032
 Alpha virt. eigenvalues --    2.83510   2.83844   2.86859   2.87322   2.88599
 Alpha virt. eigenvalues --    2.93128   2.93248   2.94291   2.96361   2.96797
 Alpha virt. eigenvalues --    2.99657   3.00232   3.01895   3.03133   3.11012
 Alpha virt. eigenvalues --    3.17189   3.21883   3.23480   3.41999   3.43608
 Alpha virt. eigenvalues --    3.95698   4.05328   4.07207   4.11002   4.12038
 Alpha virt. eigenvalues --    4.15757   4.16119   4.17779   4.18495   4.20194
 Alpha virt. eigenvalues --    4.21307   4.24536   4.24920   4.26211   4.27152
 Alpha virt. eigenvalues --    4.30932   4.32233   4.33987   4.35353   4.36091
 Alpha virt. eigenvalues --    4.37672   4.39539   4.40656   4.42945   4.47025
 Alpha virt. eigenvalues --    4.47881   4.50842   4.57215   4.58936   4.59638
 Alpha virt. eigenvalues --    4.62658   4.65152   4.68161   4.75312   4.76641
 Alpha virt. eigenvalues --    4.78762
          Condensed to atoms (all electrons):
 Mulliken charges:
               1
     1  C   -0.305360
     2  C   -0.305542
     3  C   -0.310543
     4  C   -0.066803
     5  C    0.076129
     6  C   -0.306190
     7  H    0.169031
     8  H    0.161869
     9  H    0.161665
    10  H    0.148344
    11  H    0.159601
    12  H    0.208539
    13  H    0.154559
    14  H    0.186185
    15  H    0.155589
    16  H    0.153119
    17  N   -0.427838
    18  C    0.094783
    19  C    0.095770
    20  C   -0.223846
    21  H    0.206304
    22  C   -0.227709
    23  H    0.253500
    24  C    0.428183
    25  H    0.190089
    26  H    0.208422
    27  N   -0.522834
    28  C   -0.159862
    29  H    0.176610
    30  H    0.200070
    31  C   -0.146307
    32  H    0.169022
    33  H    0.197097
    34  N   -0.817013
    35  S    1.248608
    36  O   -0.623322
    37  O   -0.645121
    38  C    0.056819
    39  C   -0.185778
    40  C   -0.189615
    41  C   -0.173661
    42  C   -0.161055
    43  C   -0.202856
    44  H    0.204971
    45  H    0.136138
    46  H    0.154033
    47  H    0.158836
    48  H    0.156085
    49  O   -0.725333
    50  H    0.483699
    51  C    0.686264
    52  O   -0.534319
    53  O   -0.649135
    54  H    0.472950
    55  C   -0.370592
    56  H    0.195960
    57  H    0.164574
    58  C   -0.042001
    59  H    0.103970
    60  H    0.118625
    61  C   -0.671041
    62  H    0.254295
    63  H    0.190262
    64  H    0.209330
    65  C   -0.292470
    66  H    0.144904
    67  H    0.165633
    68  C   -0.479918
    69  H    0.158545
    70  H    0.158949
    71  H    0.150623
    72  C   -0.334754
    73  H    0.184389
    74  H    0.168279
    75  C   -0.335528
    76  H    0.182835
    77  H    0.172288
 Sum of Mulliken charges =  -0.00000
 Mulliken charges with hydrogens summed into heavy atoms:
               1
     1  C    0.002585
     2  C    0.017992
     3  C    0.011607
     4  C    0.141736
     5  C    0.230688
     6  C    0.035585
    17  N   -0.427838
    18  C    0.301086
    19  C    0.349270
    20  C   -0.033757
    22  C   -0.019286
    24  C    0.428183
    27  N   -0.522834
    28  C    0.216817
    31  C    0.219812
    34  N   -0.817013
    35  S    1.248608
    36  O   -0.623322
    37  O   -0.645121
    38  C    0.056819
    39  C    0.019193
    40  C   -0.053477
    41  C   -0.019628
    42  C   -0.002219
    43  C   -0.046771
    49  O   -0.241633
    51  C    0.686264
    52  O   -0.534319
    53  O   -0.176185
    55  C   -0.010058
    58  C    0.180594
    61  C   -0.017153
    65  C    0.018067
    68  C   -0.011801
    72  C    0.017914
    75  C    0.019595
 Electronic spatial extent (au):  <R**2>=          14758.8940
 Charge=             -0.0000 electrons
 Dipole moment (field-independent basis, Debye):
    X=              0.9828    Y=             -0.9806    Z=             -6.4347  Tot=              6.5828
 Quadrupole moment (field-independent basis, Debye-Ang):
   XX=           -200.7711   YY=           -224.5403   ZZ=           -221.3429
   XY=            -11.1490   XZ=              0.0870   YZ=             12.0563
 Traceless Quadrupole moment (field-independent basis, Debye-Ang):
   XX=             14.7803   YY=             -8.9888   ZZ=             -5.7915
   XY=            -11.1490   XZ=              0.0870   YZ=             12.0563
 Octapole moment (field-independent basis, Debye-Ang**2):
  XXX=             59.6966  YYY=            -46.9044  ZZZ=              6.6070  XYY=             20.7612
  XXY=            -11.7917  XXZ=            -30.5595  XZZ=             -7.0209  YZZ=             18.7592
  YYZ=              8.9639  XYZ=            -17.0036
 Hexadecapole moment (field-independent basis, Debye-Ang**3):
 XXXX=          -9928.8037 YYYY=          -5649.5570 ZZZZ=          -3757.3005 XXXY=           -170.0501
 XXXZ=              1.9462 YYYX=            -89.1058 YYYZ=             61.1869 ZZZX=            -78.9868
 ZZZY=              5.1992 XXYY=          -2595.1825 XXZZ=          -2356.0076 YYZZ=          -1687.4753
 XXYZ=             56.4210 YYXZ=             60.2697 ZZXY=            -45.1834
 N-N= 4.933606658738D+03 E-N=-1.451971041602D+04  KE= 1.976510877494D+03
 No NMR shielding tensors so no spin-rotation constants.
 Leave Link  601 at Thu Feb  7 19:59:08 2019, MaxMem=   104857600 cpu:              26.5 elap:               1.2
 (Enter /home/xinyan/g16/l701.exe)
 ... and contract with generalized density number  0.
 Compute integral first derivatives.
 R6Disp: Adding Grimme-D3 dispersion energy 1st derivatives to the gradient.
 Leave Link  701 at Thu Feb  7 19:59:09 2019, MaxMem=   104857600 cpu:              23.7 elap:               1.1
 (Enter /home/xinyan/g16/l702.exe)
 L702 exits ... SP integral derivatives will be done elsewhere.
 Leave Link  702 at Thu Feb  7 19:59:09 2019, MaxMem=   104857600 cpu:               1.0 elap:               0.1
 (Enter /home/xinyan/g16/l703.exe)
 Integral derivatives from FoFJK, PRISM(SPDF).
 Compute integral first derivatives, UseDBF=F ICtDFT=           0.
 Calling FoFJK, ICntrl=      2127 FMM=T ISym2X=0 I1Cent= 0 IOpClX= 0 NMat=1 NMatS=1 NMatT=0.
 FoFJK:  IHMeth= 1 ICntrl=    2127 DoSepK=F KAlg= 0 I1Cent=           0 FoldK=F
 IRaf=         0 NMat=       1 IRICut=       1 DoRegI=T DoRafI=F ISym2E= 0 IDoP0=0 IntGTp=1.
 FoFCou: FMM=T IPFlag=           0 FMFlag=      100000 FMFlg1=        2001
         NFxFlg=           0 DoJE=F BraDBF=F KetDBF=F FulRan=T
         wScrn=  0.000000 ICntrl=      2127 IOpCl=  0 I1Cent=           0 NGrid=           0
         NMat0=    1 NMatS0=      1 NMatT0=    0 NMatD0=    1 NMtDS0=    0 NMtDT0=    0
 Symmetry not used in FoFCou.
 FMM levels:  10  Number of levels for PrismC:   9
 Leave Link  703 at Thu Feb  7 19:59:41 2019, MaxMem=   104857600 cpu:             770.3 elap:              32.2
 (Enter /home/xinyan/g16/l716.exe)
 Dipole        = 3.86679791D-01-3.85813304D-01-2.53160764D+00
 ***** Axes restored to original set *****
 -------------------------------------------------------------------
 Center     Atomic                   Forces (Hartrees/Bohr)
 Number     Number              X              Y              Z
 -------------------------------------------------------------------
      1        6           0.000064411   -0.000056749    0.000141512
      2        6           0.000097317    0.000003327    0.000077510
      3        6           0.000025430   -0.000071135   -0.000015429
      4        6          -0.000238079   -0.000091154   -0.000044951
      5        6           0.000066990   -0.000412700    0.000406154
      6        6          -0.000006529   -0.000154810    0.000078134
      7        1          -0.000036208    0.000007688   -0.000078241
      8        1           0.000087707    0.000011626    0.000069884
      9        1           0.000052061    0.000034028    0.000071727
     10        1           0.000078508   -0.000042915    0.000137809
     11        1           0.000010532   -0.000012125    0.000080541
     12        1           0.000046527   -0.000043551    0.000146270
     13        1          -0.000388794   -0.000287122   -0.000011552
     14        1           0.000107994   -0.000109038    0.000231794
     15        1           0.000116970   -0.000169890    0.000143359
     16        1           0.000061299    0.000015966    0.000084156
     17        7           0.000008161    0.000043944    0.000045306
     18        6          -0.000049703   -0.000049851    0.000083000
     19        6          -0.000015479    0.000248359    0.000159987
     20        6           0.000023590   -0.000118463   -0.000018823
     21        1          -0.000034938    0.000002958    0.000140285
     22        6           0.000064178   -0.000075679   -0.000134111
     23        1           0.000064052    0.000334700    0.000287856
     24        6          -0.000066366   -0.000320330   -0.000195771
     25        1          -0.000002188   -0.000165481   -0.000086333
     26        1           0.000024630   -0.000011999   -0.000060080
     27        7           0.000187771   -0.000350405   -0.000335915
     28        6           0.000107988   -0.000375861   -0.000324811
     29        1           0.000222372   -0.000367426   -0.000384933
     30        1           0.000024734   -0.000790790   -0.000144796
     31        6           0.000105412   -0.000311575   -0.000220160
     32        1           0.000169900   -0.000154952   -0.000243029
     33        1           0.000111818   -0.000280399   -0.000375375
     34        7          -0.001339113   -0.001443229   -0.000349799
     35       16          -0.000328230    0.000281046   -0.001936464
     36        8           0.000554169   -0.001550193    0.000952969
     37        8           0.000662089    0.001148136   -0.000379396
     38        6          -0.001313600    0.000828117   -0.000458877
     39        6          -0.000494823    0.000722995    0.000097390
     40        6          -0.000151928    0.000430805   -0.000062856
     41        6          -0.000122557    0.000248543   -0.000436624
     42        6          -0.000654266    0.000474385   -0.000835316
     43        6          -0.001093242    0.000790358   -0.000651353
     44        1          -0.000595732    0.000718407    0.000495664
     45        1           0.000089773    0.000098234    0.000299796
     46        1           0.000041044   -0.000216678   -0.000523223
     47        1          -0.000735292    0.000158237   -0.001109677
     48        1          -0.001318580    0.000652179   -0.000719223
     49        8          -0.004706897   -0.000720079   -0.000524587
     50        1           0.009358914    0.012968003    0.006094316
     51        6           0.003942859   -0.002597887   -0.000237551
     52        8           0.001011642   -0.000500305    0.000118526
     53        8           0.000606560   -0.000774083   -0.000130422
     54        1          -0.000372744   -0.000352968    0.000022493
     55        6           0.001425065   -0.001097968    0.000026909
     56        1          -0.000798170   -0.002178860   -0.000378253
     57        1           0.001685061    0.001282292    0.001213464
     58        6          -0.002858981    0.000805027   -0.000495440
     59        1          -0.001804034    0.001362394   -0.000323131
     60        1          -0.001001386   -0.002488334    0.000787223
     61        6          -0.000484548   -0.000518798   -0.000348871
     62        1          -0.000836793   -0.000093129    0.000634219
     63        1          -0.000454369   -0.000402025    0.000025749
     64        1          -0.000260360   -0.000481816   -0.000345128
     65        6           0.000414783   -0.000632102    0.000173988
     66        1           0.000326678   -0.000130965   -0.000237315
     67        1           0.000044847   -0.000983455    0.000666593
     68        6          -0.000087983   -0.000185783    0.000121088
     69        1          -0.000452149   -0.000119628    0.000105309
     70        1          -0.000223622   -0.000332571    0.000179760
     71        1           0.000086171    0.000154746   -0.000057985
     72        6           0.000105921   -0.000187081   -0.000134528
     73        1           0.000031538   -0.000141000   -0.000076617
     74        1           0.000220104   -0.000171257   -0.000066701
     75        6           0.000165911   -0.000275552   -0.000263063
     76        1           0.000455660   -0.000084709   -0.000328998
     77        1           0.000168542   -0.000341649   -0.000315031
 -------------------------------------------------------------------
 Cartesian Forces:  Max     0.012968003 RMS     0.001339013
 Z-matrix is all fixed cartesians, so copy forces.
 Leave Link  716 at Thu Feb  7 19:59:41 2019, MaxMem=   104857600 cpu:               1.5 elap:               0.1
 (Enter /home/xinyan/g16/l103.exe)

 GradGradGradGradGradGradGradGradGradGradGradGradGradGradGradGradGradGrad
 Berny optimization.
 Search for a local minimum.
 Step number   1 out of a maximum of    2
 All quantities printed in internal units (Hartrees-Bohrs-Radians)
 Second derivative matrix not updated -- first step.
 ITU=  0
     Eigenvalues ---    0.00000   0.00000   0.00000   0.00000   0.00000
     Eigenvalues ---    0.00000   0.00000   0.00007   0.00010   0.00014
     Eigenvalues ---    0.00021   0.00033   0.00070   0.00102   0.00116
     Eigenvalues ---    0.00144   0.00168   0.00177   0.00223   0.00231
     Eigenvalues ---    0.00271   0.00285   0.00366   0.00412   0.00477
     Eigenvalues ---    0.00553   0.00610   0.00662   0.00684   0.00725
     Eigenvalues ---    0.00817   0.00958   0.01052   0.01184   0.01489
     Eigenvalues ---    0.01651   0.01756   0.01851   0.01895   0.02000
     Eigenvalues ---    0.02272   0.02301   0.02416   0.02455   0.02519
     Eigenvalues ---    0.02747   0.02849   0.03084   0.03520   0.03553
     Eigenvalues ---    0.03637   0.03899   0.03922   0.04061   0.04303
     Eigenvalues ---    0.04358   0.04585   0.04801   0.04856   0.04913
     Eigenvalues ---    0.05009   0.05050   0.05070   0.05107   0.05131
     Eigenvalues ---    0.05153   0.05288   0.05349   0.05495   0.05634
     Eigenvalues ---    0.05675   0.05714   0.05742   0.05759   0.05805
     Eigenvalues ---    0.06139   0.06316   0.06388   0.06501   0.06528
     Eigenvalues ---    0.06798   0.06846   0.06967   0.07065   0.07126
     Eigenvalues ---    0.07221   0.07258   0.07322   0.07358   0.07599
     Eigenvalues ---    0.07889   0.07924   0.08008   0.08151   0.08225
     Eigenvalues ---    0.08358   0.09065   0.09652   0.09731   0.09824
     Eigenvalues ---    0.09982   0.10186   0.10633   0.11218   0.11474
     Eigenvalues ---    0.11551   0.11865   0.12385   0.12854   0.12916
     Eigenvalues ---    0.12979   0.13005   0.13258   0.13575   0.13711
     Eigenvalues ---    0.13899   0.14378   0.14516   0.15249   0.15893
     Eigenvalues ---    0.16606   0.16711   0.16882   0.17023   0.17321
     Eigenvalues ---    0.17462   0.17740   0.17889   0.18196   0.19043
     Eigenvalues ---    0.19852   0.20255   0.20600   0.21077   0.21699
     Eigenvalues ---    0.22908   0.24486   0.25345   0.26281   0.27352
     Eigenvalues ---    0.28742   0.29429   0.29617   0.30181   0.30339
     Eigenvalues ---    0.31630   0.32383   0.33520   0.34638   0.34883
     Eigenvalues ---    0.37839   0.38900   0.40433   0.43246   0.43690
     Eigenvalues ---    0.44279   0.44639   0.45040   0.48435   0.49464
     Eigenvalues ---    0.50332   0.55811   0.57523   0.58147   0.62460
     Eigenvalues ---    0.64898   0.65390   0.66549   0.68283   0.69200
     Eigenvalues ---    0.70559   0.72967   0.75898   0.78082   0.78387
     Eigenvalues ---    0.80155   0.82939   0.83075   0.84491   0.87081
     Eigenvalues ---    0.87542   0.88884   0.88962   0.90505   0.91237
     Eigenvalues ---    0.92889   0.94410   0.94756   0.95504   0.96183
     Eigenvalues ---    0.96917   0.97607   0.99570   1.00309   1.00533
     Eigenvalues ---    1.01421   1.02251   1.04155   1.04262   1.06117
     Eigenvalues ---    1.06257   1.06616   1.06916   1.07966   1.09775
     Eigenvalues ---    1.10303   1.14770   1.15954   1.20082   1.21253
     Eigenvalues ---    1.24249   1.27844   1.30011   1.35838   1.36747
     Eigenvalues ---    1.48297   1.53699   1.57161   1.59216   1.60698
     Eigenvalues ---    1.68284   1.74841   1.81967   2.22544   2.25296
 Eigenvalue     1 is   0.00D+00 Eigenvector:
                          X69       X67       X68       X66       X70
   1                    0.20534   0.20534   0.20534   0.20534   0.20534
                          X65       X71       X52       X55       X56
   1                    0.20534   0.20534   0.20534   0.20534   0.20534
 Eigenvalue     2 is   7.11D-09 Eigenvector:
                          Z54       Z53       Z52       Z51       X54
   1                    0.40673   0.31408   0.30105   0.25189   0.24113
                          X53       Y67       Y52       X69       Y66
   1                    0.21424  -0.20790  -0.20163  -0.18759  -0.17396
 Eigenvalue     3 is   2.23D-08 Eigenvector:
                          X54       X69       X53       Y71       X70
   1                    0.33318  -0.28701   0.26860   0.26761  -0.25198
                          Y69       X68       Y54       Y68       X52
   1                    0.23934  -0.20157  -0.18591   0.18199   0.17468
 Eigenvalue     4 is   4.73D-08 Eigenvector:
                          Y54       Z69       Z70       Y53       Y56
   1                    0.26795  -0.26430  -0.26142   0.25506   0.23646
                          Z68       Z71       Z54       Y51       Y55
   1                   -0.21960  -0.21273   0.17177   0.17163   0.16514
 Eigenvalue     5 is   8.41D-08 Eigenvector:
                          Z70       Z69       Z68       Z71       Z67
   1                    0.18014   0.17910   0.17062   0.16643   0.15721
                          Z65       Z56       Z66       Z55       Z57
   1                    0.15275   0.14813   0.14390   0.14034   0.13676
 Eigenvalue     6 is   3.69D-06 Eigenvector:
                          X46       Z47       X45       X41       X40
   1                    0.27680  -0.24450   0.23948   0.22090   0.19953
                          Y45       X47       Z48       Z42       X42
   1                   -0.18674   0.18524  -0.17452  -0.17001   0.17001
 Eigenvalue     7 is   3.95D-06 Eigenvector:
                          X52       X66       X56       Z67       Z71
   1                    0.33995   0.33468  -0.31927  -0.30536   0.27834
                          X70       Z57       Y67       Y52       Y57
   1                   -0.26360   0.25246  -0.19708  -0.19170   0.17700
 Eigenvalue     8 is   7.26D-05 Eigenvector:
                          Z76       Z77       Z33       Y73       Z75
   1                    0.23331   0.22301   0.19572  -0.18229   0.17583
                          Y21       Y30       X64       Y25       X46
   1                    0.17350  -0.16863   0.16474   0.16204  -0.14115
 Eigenvalue     9 is   9.73D-05 Eigenvector:
                          X59       X48       X60       Y44       X45
   1                    0.24183   0.22443   0.20999  -0.19964  -0.18823
                          Y73       X58       Y60       Y77       Y74
   1                    0.18356   0.17248  -0.16804   0.15987   0.15766
 Quadratic step=6.644D+01 exceeds max=3.000D-01 adjusted using Lamda=-2.805D-02.
 Angle between NR and scaled steps=  34.01 degrees.
 Angle between quadratic step and forces=  54.33 degrees.
 Linear search not attempted -- first point.
 B after Tr=     0.001790    0.000232   -0.000291
         Rot=    1.000000   -0.000018   -0.000097    0.000018 Ang=  -0.01 deg.
 Variable       Old X    -DE/DX   Delta X   Delta X   Delta X     New X
                                 (Linear)    (Quad)   (Total)
    X1       -9.34851   0.00006   0.00000   0.00050   0.00218  -9.34633
    Y1        0.49558  -0.00006   0.00000  -0.00198  -0.00138   0.49420
    Z1       -0.65921   0.00014   0.00000   0.00343   0.00497  -0.65424
    X2       -9.65981   0.00010   0.00000   0.00172   0.00301  -9.65680
    Y2       -1.89825   0.00000   0.00000  -0.00098  -0.00032  -1.89857
    Z2       -2.25563   0.00008   0.00000   0.00204   0.00356  -2.25208
    X3       -7.11652   0.00003   0.00000   0.00254   0.00358  -7.11294
    Y3       -2.72493  -0.00007   0.00000  -0.00015   0.00045  -2.72447
    Z3       -3.37167  -0.00002   0.00000   0.00346   0.00446  -3.36721
    X4       -5.25427  -0.00024   0.00000   0.00316   0.00460  -5.24967
    Y4       -3.18181  -0.00009   0.00000   0.00318   0.00365  -3.17816
    Z4       -1.22042  -0.00004   0.00000   0.00541   0.00603  -1.21439
    X5       -4.86194   0.00007   0.00000   0.00283   0.00467  -4.85727
    Y5       -0.75912  -0.00041   0.00000   0.00743   0.00782  -0.75130
    Z5        0.38358   0.00041   0.00000   0.00447   0.00509   0.38867
    X6       -7.41058  -0.00001   0.00000  -0.00013   0.00194  -7.40864
    Y6        0.11610  -0.00015   0.00000  -0.00217  -0.00172   0.11439
    Z6        1.45781   0.00008   0.00000   0.00424   0.00539   1.46320
    X7       -7.31830  -0.00004   0.00000   0.00249   0.00324  -7.31506
    Y7       -4.43303   0.00001   0.00000   0.00012   0.00077  -4.43226
    Z7       -4.52423  -0.00008   0.00000   0.00248   0.00346  -4.52078
    X8      -10.42131   0.00009   0.00000   0.00150   0.00296 -10.41835
    Y8       -3.42787   0.00001   0.00000  -0.00134  -0.00070  -3.42856
    Z8       -1.07864   0.00007   0.00000   0.00126   0.00287  -1.07577
    X9      -11.01576   0.00005   0.00000   0.00228   0.00328 -11.01248
    Y9       -1.58151   0.00003   0.00000  -0.00029   0.00048  -1.58104
    Z9       -3.78590   0.00007   0.00000   0.00159   0.00338  -3.78251
   X10       -8.71283   0.00008   0.00000   0.00130   0.00280  -8.71003
   Y10        2.04604  -0.00004   0.00000  -0.00163  -0.00101   2.04503
   Z10       -1.88595   0.00014   0.00000   0.00427   0.00574  -1.88021
   X11      -11.17344   0.00001   0.00000  -0.00008   0.00177 -11.17167
   Y11        1.06085  -0.00001   0.00000  -0.00204  -0.00141   1.05944
   Z11        0.13598   0.00008   0.00000   0.00226   0.00417   0.14016
   X12       -5.97974   0.00005   0.00000   0.00328   0.00490  -5.97483
   Y12       -4.67635  -0.00004   0.00000   0.00298   0.00343  -4.67293
   Z12        0.01155   0.00015   0.00000   0.00576   0.00646   0.01801
   X13       -4.23644  -0.00039   0.00000  -0.00941  -0.00778  -4.24422
   Y13        0.70912  -0.00029   0.00000   0.00573   0.00614   0.71526
   Z13       -0.94876  -0.00001   0.00000  -0.00141  -0.00085  -0.94960
   X14       -8.09901   0.00011   0.00000   0.00278   0.00507  -8.09394
   Y14       -1.28069  -0.00011   0.00000  -0.00435  -0.00392  -1.28461
   Z14        2.82348   0.00023   0.00000   0.00378   0.00501   2.82849
   X15       -7.09329   0.00012   0.00000  -0.00214   0.00020  -7.09309
   Y15        1.89736  -0.00017   0.00000  -0.00292  -0.00252   1.89485
   Z15        2.46804   0.00014   0.00000   0.00570   0.00685   2.47489
   X16       -6.43257   0.00006   0.00000   0.00175   0.00261  -6.42996
   Y16       -1.20085   0.00002   0.00000  -0.00001   0.00061  -1.20023
   Z16       -4.60419   0.00008   0.00000   0.00313   0.00404  -4.60014
   X17       -2.73045   0.00001   0.00000   0.00167   0.00291  -2.72754
   Y17       -4.05469   0.00004   0.00000   0.00193   0.00234  -4.05235
   Z17       -2.06522   0.00005   0.00000   0.00441   0.00450  -2.06072
   X18       -1.45513  -0.00005   0.00000   0.00062   0.00156  -1.45357
   Y18       -2.78546  -0.00005   0.00000  -0.00115  -0.00073  -2.78618
   Z18       -3.88681   0.00008   0.00000   0.00187   0.00176  -3.88504
   X19       -1.41597  -0.00002   0.00000   0.00186   0.00336  -1.41261
   Y19       -5.59257   0.00025   0.00000   0.00335   0.00365  -5.58892
   Z19       -0.49456   0.00016   0.00000   0.00500   0.00479  -0.48977
   X20        1.10120   0.00002   0.00000   0.00017   0.00104   1.10224
   Y20       -2.97209  -0.00012   0.00000  -0.00478  -0.00445  -2.97653
   Z20       -4.16577  -0.00002   0.00000  -0.00168  -0.00229  -4.16806
   X21       -2.57231  -0.00003   0.00000  -0.00003   0.00072  -2.57160
   Y21       -1.55849   0.00000   0.00000  -0.00044   0.00007  -1.55843
   Z21       -5.08257   0.00014   0.00000   0.00322   0.00337  -5.07920
   X22        1.14432   0.00006   0.00000   0.00104   0.00249   1.14682
   Y22       -5.86388  -0.00008   0.00000  -0.00241  -0.00219  -5.86607
   Z22       -0.64432  -0.00013   0.00000  -0.00034  -0.00106  -0.64538
   X23       -2.51192   0.00006   0.00000   0.00259   0.00434  -2.50758
   Y23       -6.53001   0.00033   0.00000   0.00894   0.00923  -6.52078
   Z23        0.96172   0.00029   0.00000   0.00917   0.00914   0.97086
   X24        2.54178  -0.00007   0.00000   0.00117   0.00233   2.54411
   Y24       -4.40267  -0.00032   0.00000  -0.00694  -0.00672  -4.40938
   Z24       -2.40086  -0.00020   0.00000  -0.00406  -0.00499  -2.40585
   X25        2.00855  -0.00000   0.00000  -0.00053   0.00010   2.00865
   Y25       -1.90420  -0.00017   0.00000  -0.00627  -0.00592  -1.91012
   Z25       -5.65501  -0.00009   0.00000  -0.00315  -0.00389  -5.65890
   X26        2.06264   0.00002   0.00000   0.00117   0.00285   2.06549
   Y26       -7.03583  -0.00001   0.00000  -0.00205  -0.00192  -7.03774
   Z26        0.75428  -0.00006   0.00000  -0.00037  -0.00131   0.75297
   X27        5.06898   0.00019   0.00000   0.00186   0.00303   5.07201
   Y27       -4.34754  -0.00035   0.00000  -0.01001  -0.00987  -4.35742
   Z27       -2.36722  -0.00034   0.00000  -0.00696  -0.00839  -2.37561
   X28        6.46685   0.00011   0.00000   0.00273   0.00429   6.47114
   Y28       -5.34687  -0.00038   0.00000  -0.01329  -0.01329  -5.36015
   Z28       -0.18517  -0.00032   0.00000  -0.00855  -0.01028  -0.19545
   X29        6.22366   0.00022   0.00000   0.00639   0.00790   6.23156
   Y29       -7.39270  -0.00037   0.00000  -0.01405  -0.01404  -7.40675
   Z29       -0.03118  -0.00038   0.00000  -0.01394  -0.01570  -0.04688
   X30        5.75397   0.00002   0.00000  -0.00008   0.00184   5.75581
   Y30       -4.43577  -0.00079   0.00000  -0.02127  -0.02129  -4.45707
   Z30        1.53990  -0.00014   0.00000  -0.00567  -0.00723   1.53267
   X31        6.51321   0.00011   0.00000   0.00311   0.00411   6.51731
   Y31       -2.34859  -0.00031   0.00000  -0.00999  -0.00986  -2.35845
   Z31       -3.65836  -0.00022   0.00000  -0.00668  -0.00832  -3.66668
   X32        7.00829   0.00017   0.00000   0.00406   0.00466   7.01296
   Y32       -2.95765  -0.00015   0.00000  -0.00922  -0.00904  -2.96669
   Z32       -5.57581  -0.00024   0.00000  -0.00669  -0.00845  -5.58425
   X33        5.38978   0.00011   0.00000   0.00354   0.00458   5.39437
   Y33       -0.61737  -0.00028   0.00000  -0.00980  -0.00963  -0.62700
   Z33       -3.73776  -0.00038   0.00000  -0.00851  -0.00987  -3.74763
   X34       -2.77244  -0.00134   0.00000   0.00684   0.00901  -2.76343
   Y34       -1.01919  -0.00144   0.00000   0.03254   0.03280  -0.98639
   Z34        2.13144  -0.00035   0.00000   0.00744   0.00765   2.13909
   X35       -2.88852  -0.00033   0.00000   0.01098   0.01357  -2.87495
   Y35       -2.71780   0.00028   0.00000   0.00714   0.00732  -2.71049
   Z35        4.63748  -0.00194   0.00000  -0.01026  -0.01009   4.62739
   X36       -5.11022   0.00055   0.00000   0.03334   0.03587  -5.07435
   Y36       -4.39361  -0.00155   0.00000  -0.02428  -0.02403  -4.41764
   Z36        4.60613   0.00095   0.00000  -0.00930  -0.00876   4.59737
   X37       -0.40202   0.00066   0.00000   0.02559   0.02820  -0.37382
   Y37       -3.94958   0.00115   0.00000   0.03725   0.03732  -3.91227
   Z37        4.98638  -0.00038   0.00000  -0.01013  -0.01048   4.97590
   X38       -1.47285  -0.00131   0.00000  -0.03839  -0.03639  -1.50924
   Y38        4.80949   0.00083   0.00000   0.02633   0.02661   4.83609
   Z38        0.18085  -0.00046   0.00000  -0.00315  -0.00298   0.17787
   X39       -0.41602  -0.00049   0.00000  -0.02180  -0.02025  -0.43627
   Y39        3.57139   0.00072   0.00000   0.02162   0.02194   3.59333
   Z39       -1.90976   0.00010   0.00000   0.00778   0.00770  -1.90205
   X40       -1.64057  -0.00015   0.00000  -0.00787  -0.00677  -1.64733
   Y40        3.65295   0.00043   0.00000   0.01125   0.01169   3.66464
   Z40       -4.23883  -0.00006   0.00000   0.00014   0.00030  -4.23853
   X41       -3.95858  -0.00012   0.00000  -0.00893  -0.00784  -3.96642
   Y41        4.88810   0.00025   0.00000   0.00557   0.00610   4.89420
   Z41       -4.49547  -0.00044   0.00000  -0.01818  -0.01753  -4.51300
   X42       -5.03406  -0.00065   0.00000  -0.02446  -0.02292  -5.05698
   Y42        6.07252   0.00047   0.00000   0.01181   0.01231   6.08483
   Z42       -2.40589  -0.00084   0.00000  -0.02976  -0.02885  -2.43474
   X43       -3.78178  -0.00109   0.00000  -0.03844  -0.03645  -3.81823
   Y43        6.03614   0.00079   0.00000   0.02218   0.02255   6.05869
   Z43       -0.09250  -0.00065   0.00000  -0.02237  -0.02171  -0.11421
   X44        1.31631  -0.00060   0.00000  -0.02112  -0.01956   1.29675
   Y44        2.48603   0.00072   0.00000   0.02583   0.02607   2.51210
   Z44       -1.66984   0.00050   0.00000   0.02120   0.02075  -1.64909
   X45       -0.79076   0.00009   0.00000   0.00315   0.00390  -0.78685
   Y45        2.73763   0.00010   0.00000   0.00534   0.00580   2.74343
   Z45       -5.87359   0.00030   0.00000   0.00921   0.00917  -5.86442
   X46       -4.91775   0.00004   0.00000   0.00087   0.00161  -4.91613
   Y46        4.93476  -0.00022   0.00000  -0.00565  -0.00502   4.92974
   Z46       -6.30868  -0.00052   0.00000  -0.02331  -0.02248  -6.33116
   X47       -6.84446  -0.00074   0.00000  -0.02616  -0.02462  -6.86907
   Y47        7.02366   0.00016   0.00000   0.00636   0.00693   7.03059
   Z47       -2.56404  -0.00111   0.00000  -0.04319  -0.04190  -2.60594
   X48       -4.60883  -0.00132   0.00000  -0.04971  -0.04737  -4.65620
   Y48        6.94170   0.00065   0.00000   0.02533   0.02567   6.96737
   Z48        1.55611  -0.00072   0.00000  -0.02964  -0.02878   1.52734
   X49        0.38229  -0.00471   0.00000  -0.04517  -0.04263   0.33966
   Y49        2.20557  -0.00072   0.00000   0.06526   0.06536   2.27094
   Z49        3.37307  -0.00052   0.00000   0.05190   0.05162   3.42469
   X50       -1.11779   0.00936   0.00000   0.00100   0.00331  -1.11448
   Y50        0.70411   0.01297   0.00000   0.07719   0.07737   0.78148
   Z50        2.50914   0.00609   0.00000   0.04420   0.04416   2.55330
   X51        4.24389   0.00394   0.00000   0.07274   0.07503   4.31892
   Y51        0.56210  -0.00260   0.00000  -0.05311  -0.05312   0.50898
   Z51        2.51198  -0.00024   0.00000  -0.00263  -0.00374   2.50824
   X52        3.71728   0.00101   0.00000   0.06162   0.06348   3.78076
   Y52       -0.25073  -0.00050   0.00000  -0.04211  -0.04203  -0.29276
   Z52        0.42080   0.00012   0.00000  -0.00375  -0.00478   0.41602
   X53        4.03077   0.00061   0.00000   0.02936   0.03202   4.06278
   Y53       -0.81583  -0.00077   0.00000  -0.03894  -0.03902  -0.85485
   Z53        4.61964  -0.00013   0.00000   0.00199   0.00088   4.62053
   X54        2.64883  -0.00037   0.00000   0.00557   0.00814   2.65697
   Y54       -2.04686  -0.00035   0.00000  -0.01267  -0.01269  -2.05955
   Z54        4.40752   0.00002   0.00000  -0.00261  -0.00349   4.40403
   X55        5.72791   0.00143   0.00000   0.03583   0.03829   5.76621
   Y55        2.96774  -0.00110   0.00000  -0.03198  -0.03206   2.93568
   Z55        2.93183   0.00003   0.00000   0.00682   0.00552   2.93735
   X56        4.85599  -0.00080   0.00000  -0.00940  -0.00660   4.84939
   Y56        4.05923  -0.00218   0.00000  -0.05476  -0.05485   4.00437
   Z56        4.45949  -0.00038   0.00000  -0.00381  -0.00490   4.45459
   X57        7.57544   0.00169   0.00000   0.04497   0.04756   7.62300
   Y57        2.34417   0.00128   0.00000   0.01724   0.01707   2.36124
   Z57        3.64502   0.00121   0.00000   0.02832   0.02663   3.67165
   X58       -0.23310  -0.00286   0.00000  -0.05737  -0.05487  -0.28797
   Y58        4.66076   0.00081   0.00000   0.04566   0.04581   4.70657
   Z58        2.75567  -0.00050   0.00000   0.00892   0.00885   2.76452
   X59       -1.51936  -0.00180   0.00000  -0.06433  -0.06153  -1.58089
   Y59        5.52034   0.00136   0.00000   0.06221   0.06235   5.58270
   Z59        4.15972  -0.00032   0.00000  -0.00845  -0.00824   4.15148
   X60        1.46696  -0.00100   0.00000  -0.04206  -0.03952   1.42744
   Y60        5.88653  -0.00249   0.00000   0.01602   0.01610   5.90264
   Z60        2.75416   0.00079   0.00000   0.01538   0.01502   2.76918
   X61       -3.12037  -0.00048   0.00000  -0.01801  -0.01485  -3.13522
   Y61       -0.53113  -0.00052   0.00000  -0.01081  -0.01071  -0.54184
   Z61        7.20265  -0.00035   0.00000   0.00065   0.00095   7.20360
   X62       -1.53748  -0.00084   0.00000  -0.02658  -0.02342  -1.56090
   Y62        0.77382  -0.00009   0.00000   0.00184   0.00188   0.77571
   Z62        6.94102   0.00063   0.00000   0.01699   0.01703   6.95805
   X63       -4.92277  -0.00045   0.00000  -0.02337  -0.02019  -4.94297
   Y63        0.46111  -0.00040   0.00000  -0.02085  -0.02069   0.44042
   Z63        7.05896   0.00003   0.00000   0.00018   0.00086   7.05982
   X64       -2.97730  -0.00026   0.00000  -0.01604  -0.01256  -2.98987
   Y64       -1.56318  -0.00048   0.00000  -0.02059  -0.02056  -1.58374
   Z64        8.98145  -0.00035   0.00000  -0.00585  -0.00562   8.97584
   X65        6.09412   0.00041   0.00000   0.01227   0.01433   6.10845
   Y65        4.55862  -0.00063   0.00000  -0.02152  -0.02153   4.53709
   Z65        0.55276   0.00017   0.00000   0.00931   0.00800   0.56076
   X66        6.79653   0.00033   0.00000   0.01501   0.01673   6.81327
   Y66        3.34385  -0.00013   0.00000  -0.00858  -0.00856   3.33529
   Z66       -0.97107  -0.00024   0.00000   0.00007  -0.00143  -0.97250
   X67        4.27509   0.00004   0.00000   0.00206   0.00402   4.27911
   Y67        5.29399  -0.00098   0.00000  -0.03603  -0.03595   5.25804
   Z67       -0.11028   0.00067   0.00000   0.02101   0.02007  -0.09021
   X68        7.92751  -0.00009   0.00000  -0.00508  -0.00285   7.92466
   Y68        6.74317  -0.00019   0.00000  -0.00645  -0.00654   6.73662
   Z68        0.99834   0.00012   0.00000   0.00612   0.00453   1.00288
   X69        8.25559  -0.00045   0.00000  -0.01844  -0.01651   8.23908
   Y69        7.82481  -0.00012   0.00000  -0.00313  -0.00317   7.82164
   Z69       -0.73267   0.00011   0.00000   0.00563   0.00402  -0.72865
   X70        7.20044  -0.00022   0.00000  -0.01083  -0.00828   7.19216
   Y70        8.04865  -0.00033   0.00000  -0.01281  -0.01292   8.03573
   Z70        2.43049   0.00018   0.00000   0.00889   0.00749   2.43798
   X71        9.75832   0.00009   0.00000   0.00241   0.00474   9.76306
   Y71        6.04329   0.00015   0.00000   0.00722   0.00704   6.05033
   Z71        1.66534  -0.00006   0.00000  -0.00019  -0.00216   1.66318
   X72        9.18762   0.00011   0.00000   0.00264   0.00412   9.19174
   Y72       -4.56694  -0.00019   0.00000  -0.00791  -0.00798  -4.57492
   Z72       -0.72620  -0.00013   0.00000  -0.00349  -0.00573  -0.73193
   X73       10.32376   0.00003   0.00000  -0.00044   0.00138  10.32515
   Y73       -4.48768  -0.00014   0.00000  -0.00545  -0.00562  -4.49331
   Z73        0.99394  -0.00008   0.00000  -0.00151  -0.00397   0.98997
   X74       10.06644   0.00022   0.00000   0.00717   0.00835  10.07479
   Y74       -5.90766  -0.00017   0.00000  -0.00730  -0.00736  -5.91502
   Z74       -2.03454  -0.00007   0.00000  -0.00096  -0.00341  -2.03795
   X75        8.84774   0.00017   0.00000   0.00404   0.00537   8.85310
   Y75       -1.98761  -0.00028   0.00000  -0.00942  -0.00944  -1.99705
   Z75       -1.98665  -0.00026   0.00000  -0.00727  -0.00935  -1.99600
   X76        8.40820   0.00046   0.00000   0.00866   0.01032   8.41852
   Y76       -0.57202  -0.00008   0.00000  -0.00561  -0.00566  -0.57768
   Z76       -0.54653  -0.00033   0.00000  -0.00963  -0.01157  -0.55810
   X77       10.49686   0.00017   0.00000   0.00432   0.00547  10.50233
   Y77       -1.36068  -0.00034   0.00000  -0.01324  -0.01328  -1.37395
   Z77       -3.05608  -0.00032   0.00000  -0.00930  -0.01167  -3.06776
         Item               Value     Threshold  Converged?
 Maximum Force            0.012968     0.000450     NO 
 RMS     Force            0.001339     0.000300     NO 
 Maximum Displacement     0.077372     0.001800     NO 
 RMS     Displacement     0.019702     0.001200     NO 
 Predicted change in Energy=-3.045117D-03
 GradGradGradGradGradGradGradGradGradGradGradGradGradGradGradGradGradGrad

 Leave Link  103 at Thu Feb  7 19:59:42 2019, MaxMem=   104857600 cpu:              23.8 elap:               1.1
 (Enter /home/xinyan/g16/l9999.exe)
 1\1\GINC-TSE4\Force\RM062X\6-31G(d)\C27H41N3O5S1\STEVETSE\07-Feb-2019\
 0\\#p M062X/6-31G* em=gd3 force int=ultrafine\\Title\\0,1\C,-4.94702,0
 .26225,-0.34884\C,-5.11175,-1.00451,-1.19363\C,-3.7659,-1.44197,-1.784
 21\C,-2.78044,-1.68374,-0.64582\C,-2.57283,-0.40171,0.20298\C,-3.92151
 ,0.06144,0.77144\H,-3.87268,-2.34586,-2.39412\H,-5.51472,-1.81395,-0.5
 7079\H,-5.82929,-0.8369,-2.00341\H,-4.61063,1.08272,-0.998\H,-5.91273,
 0.56138,0.07196\H,-3.16434,-2.47462,0.00611\H,-2.24183,0.37525,-0.5020
 6\H,-4.28581,-0.67771,1.49412\H,-3.75361,1.00404,1.30603\H,-3.40397,-0
 .63546,-2.43643\N,-1.44489,-2.14565,-1.09287\C,-0.77002,-1.474,-2.0568
 1\C,-0.7493,-2.95946,-0.26171\C,0.58273,-1.57276,-2.20443\H,-1.36121,-
 0.82472,-2.68958\C,0.60555,-3.10303,-0.34096\H,-1.32925,-3.45553,0.508
 92\C,1.34505,-2.32979,-1.27048\H,1.06288,-1.00766,-2.9925\H,1.0915,-3.
 7232,0.39915\N,2.68239,-2.30062,-1.25268\C,3.42211,-2.82944,-0.09799\H
 ,3.29342,-3.91205,-0.0165\H,3.04487,-2.34731,0.81488\C,3.44664,-1.2428
 2,-1.93592\H,3.70863,-1.56512,-2.95059\H,2.85215,-0.3267,-1.97794\N,-1
 .46711,-0.53933,1.12791\S,-1.52854,-1.4382,2.45405\O,-2.70421,-2.325,2
 .43746\O,-0.21274,-2.09003,2.63868\C,-0.7794,2.54507,0.0957\C,-0.22015
 ,1.8899,-1.0106\C,-0.86815,1.93306,-2.24309\C,-2.09479,2.58667,-2.3789
 \C,-2.66391,3.21344,-1.27314\C,-2.00123,3.19419,-0.04895\H,0.69656,1.3
 1555,-0.88364\H,-0.41845,1.44869,-3.10817\H,-2.60236,2.61136,-3.33841\
 H,-3.62193,3.71676,-1.35683\H,-2.43889,3.67339,0.82346\O,0.2023,1.1671
 4,1.78495\H,-0.59151,0.3726,1.32778\C,2.24577,0.29745,1.32928\O,1.9671
 ,-0.13268,0.22268\O,2.13299,-0.43172,2.44461\H,1.4017,-1.08315,2.33236
 \C,3.03108,1.57046,1.55146\H,2.56968,2.14805,2.35986\H,4.00875,1.24048
 ,1.92886\C,-0.12335,2.46637,1.45824\H,-0.80401,2.92124,2.20123\H,0.776
 28,3.11502,1.45744\C,-1.65123,-0.28106,3.81148\H,-0.8136,0.40949,3.673
 03\H,-2.60502,0.24401,3.73544\H,-1.57552,-0.8272,4.75278\C,3.22487,2.4
 1232,0.29251\H,3.59657,1.76949,-0.51387\H,2.26228,2.80146,-0.05836\C,4
 .19506,3.56833,0.5283\H,4.36867,4.14071,-0.38771\H,3.81031,4.25916,1.2
 8616\H,5.16388,3.19797,0.88126\C,4.86188,-2.41672,-0.38429\H,5.4631,-2
 .37478,0.52597\H,5.32693,-3.1262,-1.07663\C,4.68202,-1.0518,-1.05129\H
 ,4.44943,-0.3027,-0.28921\H,5.5547,-0.72004,-1.61721\\Version=ES64L-G1
 6RevA.03\State=1-A\HF=-1991.3657519\RMSD=5.194e-09\RMSF=1.339e-03\Dipo
 le=0.3771615,-0.3912944,-2.5322023\Quadrupole=10.6009015,-6.3180002,-4
 .2829013,-8.6823136,0.2548213,8.9592428\PG=C01 [X(C27H41N3O5S1)]\\@


 THE WORLD IS NOT A HAMBURGER - YOU CAN'T HAVE IT YOUR WAY.
 Job cpu time:       0 days  1 hours 20 minutes 57.9 seconds.
 Elapsed time:       0 days  0 hours  3 minutes 23.5 seconds.
 File lengths (MBytes):  RWF=    216 Int=      0 D2E=      0 Chk=     25 Scr=      1
 Normal termination of Gaussian 16 at Thu Feb  7 19:59:42 2019.
