 Entering Gaussian System, Link 0=g16
 Input=C27N3H41SO5-266.gjf
 Output=C27N3H41SO5-266.log
 Initial command:
 /home/xinyan/g16/l1.exe "/local/home/tmp/Gau-8629.inp" -scrdir="/local/home/tmp/"
 Entering Link 1 = /home/xinyan/g16/l1.exe PID=      8630.
  
 Copyright (c) 1988,1990,1992,1993,1995,1998,2003,2009,2016,
            Gaussian, Inc.  All Rights Reserved.
  
 This is part of the Gaussian(R) 16 program.  It is based on
 the Gaussian(R) 09 system (copyright 2009, Gaussian, Inc.),
 the Gaussian(R) 03 system (copyright 2003, Gaussian, Inc.),
 the Gaussian(R) 98 system (copyright 1998, Gaussian, Inc.),
 the Gaussian(R) 94 system (copyright 1995, Gaussian, Inc.),
 the Gaussian 92(TM) system (copyright 1992, Gaussian, Inc.),
 the Gaussian 90(TM) system (copyright 1990, Gaussian, Inc.),
 the Gaussian 88(TM) system (copyright 1988, Gaussian, Inc.),
 the Gaussian 86(TM) system (copyright 1986, Carnegie Mellon
 University), and the Gaussian 82(TM) system (copyright 1983,
 Carnegie Mellon University). Gaussian is a federally registered
 trademark of Gaussian, Inc.
  
 This software contains proprietary and confidential information,
 including trade secrets, belonging to Gaussian, Inc.
  
 This software is provided under written license and may be
 used, copied, transmitted, or stored only in accord with that
 written license.
  
 The following legend is applicable only to US Government
 contracts under FAR:
  
                    RESTRICTED RIGHTS LEGEND
  
 Use, reproduction and disclosure by the US Government is
 subject to restrictions as set forth in subparagraphs (a)
 and (c) of the Commercial Computer Software - Restricted
 Rights clause in FAR 52.227-19.
  
 Gaussian, Inc.
 340 Quinnipiac St., Bldg. 40, Wallingford CT 06492
  
  
 ---------------------------------------------------------------
 Warning -- This program may not be used in any manner that
 competes with the business of Gaussian, Inc. or will provide
 assistance to any competitor of Gaussian, Inc.  The licensee
 of this program is prohibited from giving any competitor of
 Gaussian, Inc. access to this program.  By using this program,
 the user acknowledges that Gaussian, Inc. is engaged in the
 business of creating and licensing software in the field of
 computational chemistry and represents and warrants to the
 licensee that it is not a competitor of Gaussian, Inc. and that
 it will not use this program in any manner prohibited above.
 ---------------------------------------------------------------
  

 Cite this work as:
 Gaussian 16, Revision A.03,
 M. J. Frisch, G. W. Trucks, H. B. Schlegel, G. E. Scuseria, 
 M. A. Robb, J. R. Cheeseman, G. Scalmani, V. Barone, 
 G. A. Petersson, H. Nakatsuji, X. Li, M. Caricato, A. V. Marenich, 
 J. Bloino, B. G. Janesko, R. Gomperts, B. Mennucci, H. P. Hratchian, 
 J. V. Ortiz, A. F. Izmaylov, J. L. Sonnenberg, D. Williams-Young, 
 F. Ding, F. Lipparini, F. Egidi, J. Goings, B. Peng, A. Petrone, 
 T. Henderson, D. Ranasinghe, V. G. Zakrzewski, J. Gao, N. Rega, 
 G. Zheng, W. Liang, M. Hada, M. Ehara, K. Toyota, R. Fukuda, 
 J. Hasegawa, M. Ishida, T. Nakajima, Y. Honda, O. Kitao, H. Nakai, 
 T. Vreven, K. Throssell, J. A. Montgomery, Jr., J. E. Peralta, 
 F. Ogliaro, M. J. Bearpark, J. J. Heyd, E. N. Brothers, K. N. Kudin, 
 V. N. Staroverov, T. A. Keith, R. Kobayashi, J. Normand, 
 K. Raghavachari, A. P. Rendell, J. C. Burant, S. S. Iyengar, 
 J. Tomasi, M. Cossi, J. M. Millam, M. Klene, C. Adamo, R. Cammi, 
 J. W. Ochterski, R. L. Martin, K. Morokuma, O. Farkas, 
 J. B. Foresman, and D. J. Fox, Gaussian, Inc., Wallingford CT, 2016.
 
 ******************************************
 Gaussian 16:  ES64L-G16RevA.03 25-Dec-2016
                 7-Feb-2019 
 ******************************************
 %nproc=24
 Will use up to   24 processors via shared memory.
 ------------------------------------------
 #p M062X/6-31G* em=gd3 force int=ultrafine
 ------------------------------------------
 1/10=7,30=1,38=1/1,3;
 2/12=2,17=6,18=5,40=1/2;
 3/5=1,6=6,7=1,11=2,25=1,30=1,71=1,74=-55,75=-5,124=31/1,2,3;
 4//1;
 5/5=2,38=5/2;
 6/7=2,8=2,9=2,10=2,28=1/1;
 7/29=1/1,2,3,16;
 1/10=7,30=1/3;
 99//99;
 Leave Link    1 at Thu Feb  7 23:18:06 2019, MaxMem=           0 cpu:               2.5 elap:               0.1
 (Enter /home/xinyan/g16/l101.exe)
 -----
 Title
 -----
 Symbolic Z-matrix:
 Charge =  0 Multiplicity = 1
 C                    -4.95112   0.23868  -0.30185 
 C                    -5.10085  -1.01914  -1.16293 
 C                    -3.75039  -1.43883  -1.75617 
 C                    -2.76023  -1.66911  -0.61878 
 C                    -2.55668  -0.37714   0.2238 
 C                    -3.91439   0.0408    0.80836 
 H                    -3.8499   -2.34324  -2.36737 
 H                    -5.49703  -1.83961  -0.55038 
 H                    -5.81879  -0.84873  -1.97205 
 H                    -4.62792   1.07169  -0.94208 
 H                    -5.9203    0.51928   0.12415 
 H                    -3.137    -2.45862   0.03756 
 H                    -2.27763   0.40113  -0.5025 
 H                    -4.25394  -0.72233   1.52016 
 H                    -3.76609   0.9755    1.36227 
 H                    -3.39956  -0.62797  -2.40928 
 N                    -1.42625  -2.12974  -1.07021 
 C                    -0.7599   -1.46911  -2.04513 
 C                    -0.73084  -2.94924  -0.24666 
 C                     0.58987  -1.58667  -2.21381 
 H                    -1.35509  -0.8178   -2.6721 
 C                     0.62089  -3.11375  -0.3498 
 H                    -1.30504  -3.42567   0.54074 
 C                     1.35448  -2.35515  -1.29261 
 H                     1.0652   -1.03595  -3.0148 
 H                     1.11012  -3.73763   0.38495 
 N                     2.69467  -2.34869  -1.29732 
 C                     3.44432  -2.91345  -0.16786 
 H                     3.31754  -3.99905  -0.12267 
 H                     3.0718   -2.47061   0.76647 
 C                     3.46579  -1.30457  -1.9894 
 H                     3.71164  -1.62903  -3.00786 
 H                     2.88355  -0.38011  -2.02794 
 N                    -1.43331  -0.45172   1.13325 
 S                    -1.46391  -1.41111   2.38794 
 O                    -2.54534  -2.4206    2.35003 
 O                    -0.10384  -1.97536   2.60626 
 C                    -0.93534   2.6862    0.08494 
 C                    -0.30202   1.99084  -0.95193 
 C                    -0.87647   1.96317  -2.22074 
 C                    -2.10133   2.58714  -2.46172 
 C                    -2.74961   3.24938  -1.42202 
 C                    -2.16304   3.29923  -0.15942 
 H                     0.61483   1.44042  -0.74695 
 H                    -0.36618   1.44608  -3.03038 
 H                    -2.54863   2.55774  -3.45089 
 H                    -3.71066   3.72655  -1.58973 
 H                    -2.6682    3.81246   0.6557 
 O                     0.26002   1.54484   1.86295 
 H                    -0.33345   0.8052    1.52967 
 C                     2.36661   0.21005   1.36922 
 O                     2.00549  -0.16236   0.26646 
 O                     2.12758  -0.46094   2.48545 
 H                     1.3708   -1.09609   2.35693 
 C                     3.19355   1.45323   1.60012 
 H                     2.71836   1.99738   2.42218 
 H                     4.18636   1.14505   1.9572 
 C                    -0.31128   2.75594   1.4625 
 H                    -1.07072   3.10796   2.17998 
 H                     0.49362   3.50623   1.46267 
 C                    -1.73921  -0.37384   3.82137 
 H                    -0.96124   0.39348   3.80928 
 H                    -2.72844   0.07921   3.73154 
 H                    -1.67202  -0.98629   4.72144 
 C                     3.30487   2.32324   0.35404 
 H                     3.69406   1.72459  -0.47838 
 H                     2.29892   2.63664   0.0525 
 C                     4.18844   3.54689   0.57675 
 H                     4.27201   4.14796  -0.33335 
 H                     3.78053   4.18755   1.36564 
 H                     5.1995    3.25273   0.87891 
 C                     4.88498  -2.49555  -0.44899 
 H                     5.48013  -2.45033   0.46529 
 H                     5.35784  -3.2065   -1.13408 
 C                     4.7158   -1.13121  -1.12172 
 H                     4.51218  -0.36979  -0.36373 
 H                     5.58681  -0.82188  -1.70305 
 
 ITRead=  0  0  0  0  0  0  0  0  0  0  0  0  0  0  0  0  0  0  0  0
 ITRead=  0  0  0  0  0  0  0  0  0  0  0  0  0  0  0  0  0  0  0  0
 ITRead=  0  0  0  0  0  0  0  0  0  0  0  0  0  0  0  0  0  0  0  0
 ITRead=  0  0  0  0  0  0  0  0  0  0  0  0  0  0  0  0  0
 MicOpt= -1 -1 -1 -1 -1 -1 -1 -1 -1 -1 -1 -1 -1 -1 -1 -1 -1 -1 -1 -1
 MicOpt= -1 -1 -1 -1 -1 -1 -1 -1 -1 -1 -1 -1 -1 -1 -1 -1 -1 -1 -1 -1
 MicOpt= -1 -1 -1 -1 -1 -1 -1 -1 -1 -1 -1 -1 -1 -1 -1 -1 -1 -1 -1 -1
 MicOpt= -1 -1 -1 -1 -1 -1 -1 -1 -1 -1 -1 -1 -1 -1 -1 -1 -1
 NAtoms=     77 NQM=       77 NQMF=       0 NMMI=      0 NMMIF=      0
                NMic=       0 NMicF=      0.
                    Isotopes and Nuclear Properties:
 (Nuclear quadrupole moments (NQMom) in fm**2, nuclear magnetic moments (NMagM)
  in nuclear magnetons)

  Atom         1           2           3           4           5           6           7           8           9          10
 IAtWgt=          12          12          12          12          12          12           1           1           1           1
 AtmWgt=  12.0000000  12.0000000  12.0000000  12.0000000  12.0000000  12.0000000   1.0078250   1.0078250   1.0078250   1.0078250
 NucSpn=           0           0           0           0           0           0           1           1           1           1
 AtZEff=  -0.0000000  -0.0000000  -0.0000000  -0.0000000  -0.0000000  -0.0000000  -0.0000000  -0.0000000  -0.0000000  -0.0000000
 NQMom=    0.0000000   0.0000000   0.0000000   0.0000000   0.0000000   0.0000000   0.0000000   0.0000000   0.0000000   0.0000000
 NMagM=    0.0000000   0.0000000   0.0000000   0.0000000   0.0000000   0.0000000   2.7928460   2.7928460   2.7928460   2.7928460
 AtZNuc=   6.0000000   6.0000000   6.0000000   6.0000000   6.0000000   6.0000000   1.0000000   1.0000000   1.0000000   1.0000000

  Atom        11          12          13          14          15          16          17          18          19          20
 IAtWgt=           1           1           1           1           1           1          14          12          12          12
 AtmWgt=   1.0078250   1.0078250   1.0078250   1.0078250   1.0078250   1.0078250  14.0030740  12.0000000  12.0000000  12.0000000
 NucSpn=           1           1           1           1           1           1           2           0           0           0
 AtZEff=  -0.0000000  -0.0000000  -0.0000000  -0.0000000  -0.0000000  -0.0000000  -0.0000000  -0.0000000  -0.0000000  -0.0000000
 NQMom=    0.0000000   0.0000000   0.0000000   0.0000000   0.0000000   0.0000000   2.0440000   0.0000000   0.0000000   0.0000000
 NMagM=    2.7928460   2.7928460   2.7928460   2.7928460   2.7928460   2.7928460   0.4037610   0.0000000   0.0000000   0.0000000
 AtZNuc=   1.0000000   1.0000000   1.0000000   1.0000000   1.0000000   1.0000000   7.0000000   6.0000000   6.0000000   6.0000000

  Atom        21          22          23          24          25          26          27          28          29          30
 IAtWgt=           1          12           1          12           1           1          14          12           1           1
 AtmWgt=   1.0078250  12.0000000   1.0078250  12.0000000   1.0078250   1.0078250  14.0030740  12.0000000   1.0078250   1.0078250
 NucSpn=           1           0           1           0           1           1           2           0           1           1
 AtZEff=  -0.0000000  -0.0000000  -0.0000000  -0.0000000  -0.0000000  -0.0000000  -0.0000000  -0.0000000  -0.0000000  -0.0000000
 NQMom=    0.0000000   0.0000000   0.0000000   0.0000000   0.0000000   0.0000000   2.0440000   0.0000000   0.0000000   0.0000000
 NMagM=    2.7928460   0.0000000   2.7928460   0.0000000   2.7928460   2.7928460   0.4037610   0.0000000   2.7928460   2.7928460
 AtZNuc=   1.0000000   6.0000000   1.0000000   6.0000000   1.0000000   1.0000000   7.0000000   6.0000000   1.0000000   1.0000000

  Atom        31          32          33          34          35          36          37          38          39          40
 IAtWgt=          12           1           1          14          32          16          16          12          12          12
 AtmWgt=  12.0000000   1.0078250   1.0078250  14.0030740  31.9720718  15.9949146  15.9949146  12.0000000  12.0000000  12.0000000
 NucSpn=           0           1           1           2           0           0           0           0           0           0
 AtZEff=  -0.0000000  -0.0000000  -0.0000000  -0.0000000  -0.0000000  -0.0000000  -0.0000000  -0.0000000  -0.0000000  -0.0000000
 NQMom=    0.0000000   0.0000000   0.0000000   2.0440000   0.0000000   0.0000000   0.0000000   0.0000000   0.0000000   0.0000000
 NMagM=    0.0000000   2.7928460   2.7928460   0.4037610   0.0000000   0.0000000   0.0000000   0.0000000   0.0000000   0.0000000
 AtZNuc=   6.0000000   1.0000000   1.0000000   7.0000000  16.0000000   8.0000000   8.0000000   6.0000000   6.0000000   6.0000000

  Atom        41          42          43          44          45          46          47          48          49          50
 IAtWgt=          12          12          12           1           1           1           1           1          16           1
 AtmWgt=  12.0000000  12.0000000  12.0000000   1.0078250   1.0078250   1.0078250   1.0078250   1.0078250  15.9949146   1.0078250
 NucSpn=           0           0           0           1           1           1           1           1           0           1
 AtZEff=  -0.0000000  -0.0000000  -0.0000000  -0.0000000  -0.0000000  -0.0000000  -0.0000000  -0.0000000  -0.0000000  -0.0000000
 NQMom=    0.0000000   0.0000000   0.0000000   0.0000000   0.0000000   0.0000000   0.0000000   0.0000000   0.0000000   0.0000000
 NMagM=    0.0000000   0.0000000   0.0000000   2.7928460   2.7928460   2.7928460   2.7928460   2.7928460   0.0000000   2.7928460
 AtZNuc=   6.0000000   6.0000000   6.0000000   1.0000000   1.0000000   1.0000000   1.0000000   1.0000000   8.0000000   1.0000000

  Atom        51          52          53          54          55          56          57          58          59          60
 IAtWgt=          12          16          16           1          12           1           1          12           1           1
 AtmWgt=  12.0000000  15.9949146  15.9949146   1.0078250  12.0000000   1.0078250   1.0078250  12.0000000   1.0078250   1.0078250
 NucSpn=           0           0           0           1           0           1           1           0           1           1
 AtZEff=  -0.0000000  -0.0000000  -0.0000000  -0.0000000  -0.0000000  -0.0000000  -0.0000000  -0.0000000  -0.0000000  -0.0000000
 NQMom=    0.0000000   0.0000000   0.0000000   0.0000000   0.0000000   0.0000000   0.0000000   0.0000000   0.0000000   0.0000000
 NMagM=    0.0000000   0.0000000   0.0000000   2.7928460   0.0000000   2.7928460   2.7928460   0.0000000   2.7928460   2.7928460
 AtZNuc=   6.0000000   8.0000000   8.0000000   1.0000000   6.0000000   1.0000000   1.0000000   6.0000000   1.0000000   1.0000000

  Atom        61          62          63          64          65          66          67          68          69          70
 IAtWgt=          12           1           1           1          12           1           1          12           1           1
 AtmWgt=  12.0000000   1.0078250   1.0078250   1.0078250  12.0000000   1.0078250   1.0078250  12.0000000   1.0078250   1.0078250
 NucSpn=           0           1           1           1           0           1           1           0           1           1
 AtZEff=  -0.0000000  -0.0000000  -0.0000000  -0.0000000  -0.0000000  -0.0000000  -0.0000000  -0.0000000  -0.0000000  -0.0000000
 NQMom=    0.0000000   0.0000000   0.0000000   0.0000000   0.0000000   0.0000000   0.0000000   0.0000000   0.0000000   0.0000000
 NMagM=    0.0000000   2.7928460   2.7928460   2.7928460   0.0000000   2.7928460   2.7928460   0.0000000   2.7928460   2.7928460
 AtZNuc=   6.0000000   1.0000000   1.0000000   1.0000000   6.0000000   1.0000000   1.0000000   6.0000000   1.0000000   1.0000000

  Atom        71          72          73          74          75          76          77
 IAtWgt=           1          12           1           1          12           1           1
 AtmWgt=   1.0078250  12.0000000   1.0078250   1.0078250  12.0000000   1.0078250   1.0078250
 NucSpn=           1           0           1           1           0           1           1
 AtZEff=  -0.0000000  -0.0000000  -0.0000000  -0.0000000  -0.0000000  -0.0000000  -0.0000000
 NQMom=    0.0000000   0.0000000   0.0000000   0.0000000   0.0000000   0.0000000   0.0000000
 NMagM=    2.7928460   0.0000000   2.7928460   2.7928460   0.0000000   2.7928460   2.7928460
 AtZNuc=   1.0000000   6.0000000   1.0000000   1.0000000   6.0000000   1.0000000   1.0000000
 Leave Link  101 at Thu Feb  7 23:18:06 2019, MaxMem=   104857600 cpu:               5.8 elap:               0.3
 (Enter /home/xinyan/g16/l103.exe)

 GradGradGradGradGradGradGradGradGradGradGradGradGradGradGradGradGradGrad
 Berny optimization.
 Initialization pass.
 Trust Radius=3.00D-01 FncErr=1.00D-07 GrdErr=1.00D-07 EigMax=2.50D+02 EigMin=1.00D-04
 Number of steps in this run=      2 maximum allowed number of steps=      2.
 GradGradGradGradGradGradGradGradGradGradGradGradGradGradGradGradGradGrad

 Leave Link  103 at Thu Feb  7 23:18:06 2019, MaxMem=   104857600 cpu:               1.6 elap:               0.1
 (Enter /home/xinyan/g16/l202.exe)
 Stoichiometry    C27H41N3O5S
 Framework group  C1[X(C27H41N3O5S)]
 Deg. of freedom   225
 Full point group                 C1      NOp   1
 Largest Abelian subgroup         C1      NOp   1
 Largest concise Abelian subgroup C1      NOp   1
                         Standard orientation:                         
 ---------------------------------------------------------------------
 Center     Atomic      Atomic             Coordinates (Angstroms)
 Number     Number       Type             X           Y           Z
 ---------------------------------------------------------------------
      1          6           0       -4.869957    0.154202   -0.443323
      2          6           0       -4.944480   -1.137997   -1.262260
      3          6           0       -3.572521   -1.493052   -1.848334
      4          6           0       -2.566610   -1.624585   -0.709061
      5          6           0       -2.440531   -0.295616    0.090005
      6          6           0       -3.819644    0.056963    0.667496
      7          1           0       -3.617947   -2.421419   -2.429277
      8          1           0       -5.287477   -1.960758   -0.621353
      9          1           0       -5.674005   -1.038683   -2.072866
     10          1           0       -4.600657    0.984077   -1.111936
     11          1           0       -5.853295    0.388474   -0.021796
     12          1           0       -2.892010   -2.413833   -0.025492
     13          1           0       -2.212183    0.474115   -0.662628
     14          1           0       -4.109353   -0.701862    1.405449
     15          1           0       -3.727562    1.016670    1.189949
     16          1           0       -3.274318   -0.683996   -2.529238
     17          7           0       -1.208148   -2.016846   -1.151986
     18          6           0       -0.586740   -1.348797   -2.151229
     19          6           0       -0.461057   -2.764584   -0.305727
     20          6           0        0.767192   -1.388582   -2.322798
     21          1           0       -1.222840   -0.756232   -2.796048
     22          6           0        0.897925   -2.848935   -0.410274
     23          1           0       -1.002411   -3.249359    0.499640
     24          6           0        1.580503   -2.077966   -1.380952
     25          1           0        1.205245   -0.836223   -3.143667
     26          1           0        1.426902   -3.417121    0.341907
     27          7           0        2.917726   -1.989247   -1.392626
     28          6           0        3.704178   -2.469499   -0.249184
     29          1           0        3.644691   -3.558776   -0.168062
     30          1           0        3.307902   -2.020019    0.672110
     31          6           0        3.620922   -0.922925   -2.122187
     32          1           0        3.883219   -1.264861   -3.130779
     33          1           0        2.982694   -0.037788   -2.187846
     34          7           0       -1.311951   -0.271107    0.995724
     35         16           0       -1.279558   -1.188915    2.281100
     36          8           0       -2.296818   -2.263708    2.281505
     37          8           0        0.113360   -1.660983    2.510802
     38          6           0       -1.011520    2.855445   -0.156614
     39          6           0       -0.339687    2.166738   -1.173493
     40          6           0       -0.915179    2.062209   -2.437819
     41          6           0       -2.176894    2.601426   -2.692793
     42          6           0       -2.861609    3.256266   -1.671932
     43          6           0       -2.275406    3.383462   -0.414596
     44          1           0        0.609963    1.680768   -0.955340
     45          1           0       -0.376441    1.551221   -3.232770
     46          1           0       -2.624525    2.512159   -3.678215
     47          1           0       -3.850747    3.667667   -1.850230
     48          1           0       -2.808769    3.891095    0.385932
     49          8           0        0.257297    1.848669    1.651537
     50          1           0       -0.290461    1.063400    1.345493
     51          6           0        2.440651    0.630507    1.190879
     52          8           0        2.099834    0.200642    0.102653
     53          8           0        2.246815   -0.016961    2.329538
     54          1           0        1.530238   -0.701326    2.225567
     55          6           0        3.190087    1.929096    1.377040
     56          1           0        2.684752    2.469644    2.183347
     57          1           0        4.201081    1.694435    1.738947
     58          6           0       -0.388776    3.008558    1.214784
     59          1           0       -1.166294    3.336532    1.924251
     60          1           0        0.368344    3.806535    1.186486
     61          6           0       -1.613927   -0.124110    3.681396
     62          1           0       -0.884773    0.688798    3.640427
     63          1           0       -2.629469    0.264050    3.581863
     64          1           0       -1.506389   -0.701432    4.600564
     65          6           0        3.243795    2.762988    0.102770
     66          1           0        3.666622    2.162443   -0.711685
     67          1           0        2.219532    3.003869   -0.203731
     68          6           0        4.050932    4.045308    0.281096
     69          1           0        4.094538    4.620222   -0.648487
     70          1           0        3.606699    4.685182    1.050772
     71          1           0        5.079111    3.823955    0.587564
     72          6           0        5.115482   -1.973222   -0.551021
     73          1           0        5.709479   -1.861535    0.358292
     74          1           0        5.629188   -2.675818   -1.214994
     75          6           0        4.860492   -0.644659   -1.266920
     76          1           0        4.612623    0.127234   -0.533085
     77          1           0        5.709015   -0.301566   -1.862389
 ---------------------------------------------------------------------
 Rotational constants (GHZ):           0.1449698           0.0970826           0.0866459
 Leave Link  202 at Thu Feb  7 23:18:06 2019, MaxMem=   104857600 cpu:               2.5 elap:               0.1
 (Enter /home/xinyan/g16/l301.exe)
 Standard basis: 6-31G(d) (6D, 7F)
 Ernie: Thresh=  0.10000D-02 Tol=  0.10000D-05 Strict=F.
 There are   626 symmetry adapted cartesian basis functions of A   symmetry.
 There are   626 symmetry adapted basis functions of A   symmetry.
   626 basis functions,  1196 primitive gaussians,   626 cartesian basis functions
   140 alpha electrons      140 beta electrons
       nuclear repulsion energy      4897.3899743700 Hartrees.
 IExCor= 4336 DFT=T Ex+Corr=M062X ExCW=0 ScaHFX=  0.540000
 ScaDFX=  1.000000  1.000000  1.000000  1.000000 ScalE2=  1.000000  1.000000
 IRadAn=      5 IRanWt=     -1 IRanGd=            0 ICorTp=0 IEmpDi=131
 NAtoms=   77 NActive=   77 NUniq=   77 SFac= 1.00D+00 NAtFMM=   60 NAOKFM=T Big=T
 Integral buffers will be    131072 words long.
 Raffenetti 2 integral format.
 Two-electron integral symmetry is turned on.
 R6Disp:  Grimme-D3 Dispersion energy=       -0.0106530256 Hartrees.
 Nuclear repulsion after empirical dispersion term =     4897.3793213444 Hartrees.
 Leave Link  301 at Thu Feb  7 23:18:07 2019, MaxMem=   104857600 cpu:               2.9 elap:               0.1
 (Enter /home/xinyan/g16/l302.exe)
 NPDir=0 NMtPBC=     1 NCelOv=     1 NCel=       1 NClECP=     1 NCelD=      1
         NCelK=      1 NCelE2=     1 NClLst=     1 CellRange=     0.0.
 One-electron integrals computed using PRISM.
 One-electron integral symmetry used in STVInt
 PrsmSu:  requested number of processors reduced to:  23 ShMem   1 Linda.
 NBasis=   626 RedAO= T EigKep=  4.35D-04  NBF=   626
 NBsUse=   626 1.00D-06 EigRej= -1.00D+00 NBFU=   626
 Precomputing XC quadrature grid using
 IXCGrd= 4 IRadAn=           5 IRanWt=          -1 IRanGd=           0 AccXCQ= 0.00D+00.
 Generated NRdTot=       0 NPtTot=           0 NUsed=           0 NTot=          32
 NSgBfM=   615   610   614   614   615 MxSgAt=    77 MxSgA2=    77.
 Leave Link  302 at Thu Feb  7 23:18:08 2019, MaxMem=   104857600 cpu:              43.1 elap:               1.9
 (Enter /home/xinyan/g16/l303.exe)
 DipDrv:  MaxL=1.
 Leave Link  303 at Thu Feb  7 23:18:09 2019, MaxMem=   104857600 cpu:               6.2 elap:               0.3
 (Enter /home/xinyan/g16/l401.exe)
 ExpMin= 1.17D-01 ExpMax= 2.19D+04 ExpMxC= 3.30D+03 IAcc=3 IRadAn=         5 AccDes= 0.00D+00
 Harris functional with IExCor= 1009 and IRadAn=       5 diagonalized for initial guess.
 HarFok:  IExCor= 1009 AccDes= 0.00D+00 IRadAn=         5 IDoV= 1 UseB2=F ITyADJ=14
 ICtDFT=  3500011 ScaDFX=  1.000000  1.000000  1.000000  1.000000
 FoFCou: FMM=F IPFlag=           0 FMFlag=      100000 FMFlg1=        2001
         NFxFlg=           0 DoJE=T BraDBF=F KetDBF=T FulRan=T
         wScrn=  0.000000 ICntrl=       500 IOpCl=  0 I1Cent=   200000004 NGrid=           0
         NMat0=    1 NMatS0=      1 NMatT0=    0 NMatD0=    1 NMtDS0=    0 NMtDT0=    0
 Petite list used in FoFCou.
 Harris En= -1990.54882780647    
 JPrj=0 DoOrth=F DoCkMO=F.
 Leave Link  401 at Thu Feb  7 23:18:13 2019, MaxMem=   104857600 cpu:              96.3 elap:               4.1
 (Enter /home/xinyan/g16/l502.exe)
 Integral symmetry usage will be decided dynamically.
 Closed shell SCF:
 Using DIIS extrapolation, IDIIS=  1040.
 NGot=   104857600 LenX=   104051656 LenY=   103659154
 Requested convergence on RMS density matrix=1.00D-08 within 128 cycles.
 Requested convergence on MAX density matrix=1.00D-06.
 Requested convergence on             energy=1.00D-06.
 No special actions if energy rises.
 Fock matrices will be formed incrementally for  20 cycles.
 Integral accuracy reduced to 1.0D-05 until final iterations.

 Cycle   1  Pass 0  IDiag  1:
 FoFJK:  IHMeth= 1 ICntrl=       0 DoSepK=F KAlg= 0 I1Cent=           0 FoldK=F
 IRaf= 990000000 NMat=       1 IRICut=       1 DoRegI=T DoRafI=F ISym2E= 0 IDoP0=0 IntGTp=1.
 FoFCou: FMM=T IPFlag=           0 FMFlag=      100000 FMFlg1=        2001
         NFxFlg=           0 DoJE=F BraDBF=F KetDBF=F FulRan=T
         wScrn=  0.000000 ICntrl=         0 IOpCl=  0 I1Cent=           0 NGrid=           0
         NMat0=    1 NMatS0=      1 NMatT0=    0 NMatD0=    1 NMtDS0=    0 NMtDT0=    0
 Symmetry not used in FoFCou.
 FMM levels:  10  Number of levels for PrismC:   9
 E= -1990.34874939084    
 DIIS: error= 2.86D-02 at cycle   1 NSaved=   1.
 NSaved= 1 IEnMin= 1 EnMin= -1990.34874939084     IErMin= 1 ErrMin= 2.86D-02
 ErrMax= 2.86D-02  0.00D+00 EMaxC= 1.00D-01 BMatC= 1.22D+00 BMatP= 1.22D+00
 IDIUse=3 WtCom= 7.14D-01 WtEn= 2.86D-01
 Coeff-Com:  0.100D+01
 Coeff-En:   0.100D+01
 Coeff:      0.100D+01
 Gap=     0.372 Goal=   None    Shift=    0.000
 GapD=    0.372 DampG=1.000 DampE=0.500 DampFc=0.5000 IDamp=-1.
 Damping current iteration by 5.00D-01
 RMSDP=3.21D-03 MaxDP=3.20D-01              OVMax= 1.38D-01

 Cycle   2  Pass 0  IDiag  1:
 RMSU=  1.59D-03    CP:  9.87D-01
 E= -1990.86181256469     Delta-E=       -0.513063173847 Rises=F Damp=T
 DIIS: error= 8.79D-03 at cycle   2 NSaved=   2.
 NSaved= 2 IEnMin= 2 EnMin= -1990.86181256469     IErMin= 2 ErrMin= 8.79D-03
 ErrMax= 8.79D-03  0.00D+00 EMaxC= 1.00D-01 BMatC= 8.81D-02 BMatP= 1.22D+00
 IDIUse=3 WtCom= 9.12D-01 WtEn= 8.79D-02
 Coeff-Com: -0.442D-01 0.104D+01
 Coeff-En:   0.000D+00 0.100D+01
 Coeff:     -0.403D-01 0.104D+01
 Gap=     0.253 Goal=   None    Shift=    0.000
 RMSDP=7.76D-04 MaxDP=7.51D-02 DE=-5.13D-01 OVMax= 9.36D-02

 Cycle   3  Pass 0  IDiag  1:
 RMSU=  7.71D-04    CP:  9.81D-01  1.01D+00
 E= -1991.35687010446     Delta-E=       -0.495057539764 Rises=F Damp=F
 DIIS: error= 7.29D-03 at cycle   3 NSaved=   3.
 NSaved= 3 IEnMin= 3 EnMin= -1991.35687010446     IErMin= 3 ErrMin= 7.29D-03
 ErrMax= 7.29D-03  0.00D+00 EMaxC= 1.00D-01 BMatC= 3.71D-02 BMatP= 8.81D-02
 IDIUse=3 WtCom= 9.27D-01 WtEn= 7.29D-02
 Coeff-Com: -0.714D-01 0.408D+00 0.664D+00
 Coeff-En:   0.000D+00 0.000D+00 0.100D+01
 Coeff:     -0.662D-01 0.378D+00 0.688D+00
 Gap=     0.252 Goal=   None    Shift=    0.000
 RMSDP=4.25D-04 MaxDP=4.05D-02 DE=-4.95D-01 OVMax= 4.04D-02

 Cycle   4  Pass 0  IDiag  1:
 RMSU=  2.89D-04    CP:  9.83D-01  1.09D+00  6.33D-01
 E= -1991.37815234029     Delta-E=       -0.021282235840 Rises=F Damp=F
 DIIS: error= 3.92D-03 at cycle   4 NSaved=   4.
 NSaved= 4 IEnMin= 4 EnMin= -1991.37815234029     IErMin= 4 ErrMin= 3.92D-03
 ErrMax= 3.92D-03  0.00D+00 EMaxC= 1.00D-01 BMatC= 1.08D-02 BMatP= 3.71D-02
 IDIUse=3 WtCom= 9.61D-01 WtEn= 3.92D-02
 Coeff-Com: -0.261D-01 0.862D-01 0.378D+00 0.562D+00
 Coeff-En:   0.000D+00 0.000D+00 0.232D+00 0.768D+00
 Coeff:     -0.251D-01 0.828D-01 0.372D+00 0.570D+00
 Gap=     0.242 Goal=   None    Shift=    0.000
 RMSDP=1.81D-04 MaxDP=1.24D-02 DE=-2.13D-02 OVMax= 2.10D-02

 Cycle   5  Pass 0  IDiag  1:
 RMSU=  8.31D-05    CP:  9.82D-01  1.08D+00  7.49D-01  5.42D-01
 E= -1991.38681220379     Delta-E=       -0.008659863494 Rises=F Damp=F
 DIIS: error= 7.43D-04 at cycle   5 NSaved=   5.
 NSaved= 5 IEnMin= 5 EnMin= -1991.38681220379     IErMin= 5 ErrMin= 7.43D-04
 ErrMax= 7.43D-04  0.00D+00 EMaxC= 1.00D-01 BMatC= 5.80D-04 BMatP= 1.08D-02
 IDIUse=3 WtCom= 9.93D-01 WtEn= 7.43D-03
 Coeff-Com: -0.810D-02 0.194D-01 0.146D+00 0.287D+00 0.556D+00
 Coeff-En:   0.000D+00 0.000D+00 0.000D+00 0.000D+00 0.100D+01
 Coeff:     -0.804D-02 0.192D-01 0.145D+00 0.285D+00 0.559D+00
 Gap=     0.244 Goal=   None    Shift=    0.000
 RMSDP=4.81D-05 MaxDP=3.71D-03 DE=-8.66D-03 OVMax= 5.96D-03

 Cycle   6  Pass 0  IDiag  1:
 RMSU=  2.40D-05    CP:  9.82D-01  1.08D+00  7.52D-01  6.14D-01  5.68D-01
 E= -1991.38730942566     Delta-E=       -0.000497221871 Rises=F Damp=F
 DIIS: error= 1.95D-04 at cycle   6 NSaved=   6.
 NSaved= 6 IEnMin= 6 EnMin= -1991.38730942566     IErMin= 6 ErrMin= 1.95D-04
 ErrMax= 1.95D-04  0.00D+00 EMaxC= 1.00D-01 BMatC= 3.80D-05 BMatP= 5.80D-04
 IDIUse=3 WtCom= 9.98D-01 WtEn= 1.95D-03
 Coeff-Com: -0.119D-02 0.104D-02 0.310D-01 0.769D-01 0.260D+00 0.632D+00
 Coeff-En:   0.000D+00 0.000D+00 0.000D+00 0.000D+00 0.000D+00 0.100D+01
 Coeff:     -0.118D-02 0.104D-02 0.309D-01 0.767D-01 0.260D+00 0.633D+00
 Gap=     0.243 Goal=   None    Shift=    0.000
 RMSDP=1.23D-05 MaxDP=6.78D-04 DE=-4.97D-04 OVMax= 1.94D-03

 Cycle   7  Pass 0  IDiag  1:
 RMSU=  7.90D-06    CP:  9.82D-01  1.08D+00  7.55D-01  6.14D-01  6.41D-01
                    CP:  7.16D-01
 E= -1991.38734711361     Delta-E=       -0.000037687945 Rises=F Damp=F
 DIIS: error= 4.00D-05 at cycle   7 NSaved=   7.
 NSaved= 7 IEnMin= 7 EnMin= -1991.38734711361     IErMin= 7 ErrMin= 4.00D-05
 ErrMax= 4.00D-05  0.00D+00 EMaxC= 1.00D-01 BMatC= 2.93D-06 BMatP= 3.80D-05
 IDIUse=1 WtCom= 1.00D+00 WtEn= 0.00D+00
 Coeff-Com:  0.292D-03-0.145D-02-0.670D-03 0.606D-02 0.626D-01 0.269D+00
 Coeff-Com:  0.665D+00
 Coeff:      0.292D-03-0.145D-02-0.670D-03 0.606D-02 0.626D-01 0.269D+00
 Coeff:      0.665D+00
 Gap=     0.243 Goal=   None    Shift=    0.000
 RMSDP=4.15D-06 MaxDP=2.33D-04 DE=-3.77D-05 OVMax= 3.57D-04

 Initial convergence to 1.0D-05 achieved.  Increase integral accuracy.
 Cycle   8  Pass 1  IDiag  1:
 E= -1991.38736976742     Delta-E=       -0.000022653810 Rises=F Damp=F
 DIIS: error= 1.41D-04 at cycle   1 NSaved=   1.
 NSaved= 1 IEnMin= 1 EnMin= -1991.38736976742     IErMin= 1 ErrMin= 1.41D-04
 ErrMax= 1.41D-04  0.00D+00 EMaxC= 1.00D-01 BMatC= 1.19D-05 BMatP= 1.19D-05
 IDIUse=3 WtCom= 9.99D-01 WtEn= 1.41D-03
 Coeff-Com:  0.100D+01
 Coeff-En:   0.100D+01
 Coeff:      0.100D+01
 Gap=     0.243 Goal=   None    Shift=    0.000
 RMSDP=4.15D-06 MaxDP=2.33D-04 DE=-2.27D-05 OVMax= 5.76D-04

 Cycle   9  Pass 1  IDiag  1:
 RMSU=  6.44D-05    CP:  1.00D+00
 E= -1991.38738064121     Delta-E=       -0.000010873790 Rises=F Damp=F
 DIIS: error= 2.39D-05 at cycle   2 NSaved=   2.
 NSaved= 2 IEnMin= 2 EnMin= -1991.38738064121     IErMin= 2 ErrMin= 2.39D-05
 ErrMax= 2.39D-05  0.00D+00 EMaxC= 1.00D-01 BMatC= 9.19D-07 BMatP= 1.19D-05
 IDIUse=1 WtCom= 1.00D+00 WtEn= 0.00D+00
 Coeff-Com:  0.867D-01 0.913D+00
 Coeff:      0.867D-01 0.913D+00
 Gap=     0.243 Goal=   None    Shift=    0.000
 RMSDP=3.98D-06 MaxDP=2.56D-04 DE=-1.09D-05 OVMax= 4.48D-04

 Cycle  10  Pass 1  IDiag  1:
 RMSU=  3.55D-06    CP:  1.00D+00  1.03D+00
 E= -1991.38738016981     Delta-E=        0.000000471400 Rises=F Damp=F
 DIIS: error= 3.35D-05 at cycle   3 NSaved=   3.
 NSaved= 3 IEnMin= 2 EnMin= -1991.38738064121     IErMin= 2 ErrMin= 2.39D-05
 ErrMax= 3.35D-05  0.00D+00 EMaxC= 1.00D-01 BMatC= 1.46D-06 BMatP= 9.19D-07
 IDIUse=1 WtCom= 1.00D+00 WtEn= 0.00D+00
 Coeff-Com: -0.161D-01 0.564D+00 0.452D+00
 Coeff:     -0.161D-01 0.564D+00 0.452D+00
 Gap=     0.243 Goal=   None    Shift=    0.000
 RMSDP=1.98D-06 MaxDP=1.58D-04 DE= 4.71D-07 OVMax= 3.24D-04

 Cycle  11  Pass 1  IDiag  1:
 RMSU=  6.27D-07    CP:  1.00D+00  1.03D+00  4.80D-01
 E= -1991.38738144225     Delta-E=       -0.000001272444 Rises=F Damp=F
 DIIS: error= 3.71D-06 at cycle   4 NSaved=   4.
 NSaved= 4 IEnMin= 4 EnMin= -1991.38738144225     IErMin= 4 ErrMin= 3.71D-06
 ErrMax= 3.71D-06  0.00D+00 EMaxC= 1.00D-01 BMatC= 1.13D-08 BMatP= 9.19D-07
 IDIUse=1 WtCom= 1.00D+00 WtEn= 0.00D+00
 Coeff-Com: -0.881D-02 0.249D+00 0.215D+00 0.544D+00
 Coeff:     -0.881D-02 0.249D+00 0.215D+00 0.544D+00
 Gap=     0.243 Goal=   None    Shift=    0.000
 RMSDP=2.19D-07 MaxDP=1.14D-05 DE=-1.27D-06 OVMax= 2.04D-05

 Cycle  12  Pass 1  IDiag  1:
 RMSU=  1.99D-07    CP:  1.00D+00  1.03D+00  4.97D-01  8.96D-01
 E= -1991.38738145252     Delta-E=       -0.000000010266 Rises=F Damp=F
 DIIS: error= 1.16D-06 at cycle   5 NSaved=   5.
 NSaved= 5 IEnMin= 5 EnMin= -1991.38738145252     IErMin= 5 ErrMin= 1.16D-06
 ErrMax= 1.16D-06  0.00D+00 EMaxC= 1.00D-01 BMatC= 9.42D-10 BMatP= 1.13D-08
 IDIUse=1 WtCom= 1.00D+00 WtEn= 0.00D+00
 Coeff-Com: -0.373D-03-0.919D-02 0.410D-02 0.187D+00 0.819D+00
 Coeff:     -0.373D-03-0.919D-02 0.410D-02 0.187D+00 0.819D+00
 Gap=     0.243 Goal=   None    Shift=    0.000
 RMSDP=9.44D-08 MaxDP=3.93D-06 DE=-1.03D-08 OVMax= 1.63D-05

 Cycle  13  Pass 1  IDiag  1:
 RMSU=  7.19D-08    CP:  1.00D+00  1.03D+00  5.01D-01  9.84D-01  9.13D-01
 E= -1991.38738145339     Delta-E=       -0.000000000879 Rises=F Damp=F
 DIIS: error= 5.49D-07 at cycle   6 NSaved=   6.
 NSaved= 6 IEnMin= 6 EnMin= -1991.38738145339     IErMin= 6 ErrMin= 5.49D-07
 ErrMax= 5.49D-07  0.00D+00 EMaxC= 1.00D-01 BMatC= 3.29D-10 BMatP= 9.42D-10
 IDIUse=1 WtCom= 1.00D+00 WtEn= 0.00D+00
 Coeff-Com:  0.108D-02-0.409D-01-0.271D-01 0.190D-01 0.457D+00 0.591D+00
 Coeff:      0.108D-02-0.409D-01-0.271D-01 0.190D-01 0.457D+00 0.591D+00
 Gap=     0.243 Goal=   None    Shift=    0.000
 RMSDP=3.77D-08 MaxDP=3.19D-06 DE=-8.79D-10 OVMax= 4.99D-06

 Cycle  14  Pass 1  IDiag  1:
 RMSU=  2.67D-08    CP:  1.00D+00  1.03D+00  5.04D-01  1.00D+00  1.01D+00
                    CP:  8.17D-01
 E= -1991.38738145380     Delta-E=       -0.000000000410 Rises=F Damp=F
 DIIS: error= 2.19D-07 at cycle   7 NSaved=   7.
 NSaved= 7 IEnMin= 7 EnMin= -1991.38738145380     IErMin= 7 ErrMin= 2.19D-07
 ErrMax= 2.19D-07  0.00D+00 EMaxC= 1.00D-01 BMatC= 2.19D-11 BMatP= 3.29D-10
 IDIUse=1 WtCom= 1.00D+00 WtEn= 0.00D+00
 Coeff-Com:  0.486D-03-0.163D-01-0.110D-01-0.145D-01 0.106D+00 0.239D+00
 Coeff-Com:  0.696D+00
 Coeff:      0.486D-03-0.163D-01-0.110D-01-0.145D-01 0.106D+00 0.239D+00
 Coeff:      0.696D+00
 Gap=     0.243 Goal=   None    Shift=    0.000
 RMSDP=1.21D-08 MaxDP=8.23D-07 DE=-4.10D-10 OVMax= 1.79D-06

 Cycle  15  Pass 1  IDiag  1:
 RMSU=  9.00D-09    CP:  1.00D+00  1.03D+00  5.05D-01  1.00D+00  1.02D+00
                    CP:  9.01D-01  1.07D+00
 E= -1991.38738145372     Delta-E=        0.000000000083 Rises=F Damp=F
 DIIS: error= 5.57D-08 at cycle   8 NSaved=   8.
 NSaved= 8 IEnMin= 7 EnMin= -1991.38738145380     IErMin= 8 ErrMin= 5.57D-08
 ErrMax= 5.57D-08  0.00D+00 EMaxC= 1.00D-01 BMatC= 3.32D-12 BMatP= 2.19D-11
 IDIUse=1 WtCom= 1.00D+00 WtEn= 0.00D+00
 Coeff-Com: -0.415D-04 0.242D-02 0.197D-02-0.109D-01-0.534D-01-0.284D-01
 Coeff-Com:  0.277D+00 0.811D+00
 Coeff:     -0.415D-04 0.242D-02 0.197D-02-0.109D-01-0.534D-01-0.284D-01
 Coeff:      0.277D+00 0.811D+00
 Gap=     0.243 Goal=   None    Shift=    0.000
 RMSDP=5.40D-09 MaxDP=3.94D-07 DE= 8.28D-11 OVMax= 8.09D-07

 SCF Done:  E(RM062X) =  -1991.38738145     A.U. after   15 cycles
            NFock= 15  Conv=0.54D-08     -V/T= 2.0075
 KE= 1.976476573513D+03 PE=-1.444730908864D+04 EE= 5.582065812327D+03
 Leave Link  502 at Thu Feb  7 23:20:41 2019, MaxMem=   104857600 cpu:            3560.6 elap:             148.6
 (Enter /home/xinyan/g16/l601.exe)
 Copying SCF densities to generalized density rwf, IOpCl= 0 IROHF=0.

 **********************************************************************

            Population analysis using the SCF density.

 **********************************************************************

 Orbital symmetries:
       Occupied  (A) (A) (A) (A) (A) (A) (A) (A) (A) (A) (A) (A)
                 (A) (A) (A) (A) (A) (A) (A) (A) (A) (A) (A) (A)
                 (A) (A) (A) (A) (A) (A) (A) (A) (A) (A) (A) (A)
                 (A) (A) (A) (A) (A) (A) (A) (A) (A) (A) (A) (A)
                 (A) (A) (A) (A) (A) (A) (A) (A) (A) (A) (A) (A)
                 (A) (A) (A) (A) (A) (A) (A) (A) (A) (A) (A) (A)
                 (A) (A) (A) (A) (A) (A) (A) (A) (A) (A) (A) (A)
                 (A) (A) (A) (A) (A) (A) (A) (A) (A) (A) (A) (A)
                 (A) (A) (A) (A) (A) (A) (A) (A) (A) (A) (A) (A)
                 (A) (A) (A) (A) (A) (A) (A) (A) (A) (A) (A) (A)
                 (A) (A) (A) (A) (A) (A) (A) (A) (A) (A) (A) (A)
                 (A) (A) (A) (A) (A) (A) (A) (A)
       Virtual   (A) (A) (A) (A) (A) (A) (A) (A) (A) (A) (A) (A)
                 (A) (A) (A) (A) (A) (A) (A) (A) (A) (A) (A) (A)
                 (A) (A) (A) (A) (A) (A) (A) (A) (A) (A) (A) (A)
                 (A) (A) (A) (A) (A) (A) (A) (A) (A) (A) (A) (A)
                 (A) (A) (A) (A) (A) (A) (A) (A) (A) (A) (A) (A)
                 (A) (A) (A) (A) (A) (A) (A) (A) (A) (A) (A) (A)
                 (A) (A) (A) (A) (A) (A) (A) (A) (A) (A) (A) (A)
                 (A) (A) (A) (A) (A) (A) (A) (A) (A) (A) (A) (A)
                 (A) (A) (A) (A) (A) (A) (A) (A) (A) (A) (A) (A)
                 (A) (A) (A) (A) (A) (A) (A) (A) (A) (A) (A) (A)
                 (A) (A) (A) (A) (A) (A) (A) (A) (A) (A) (A) (A)
                 (A) (A) (A) (A) (A) (A) (A) (A) (A) (A) (A) (A)
                 (A) (A) (A) (A) (A) (A) (A) (A) (A) (A) (A) (A)
                 (A) (A) (A) (A) (A) (A) (A) (A) (A) (A) (A) (A)
                 (A) (A) (A) (A) (A) (A) (A) (A) (A) (A) (A) (A)
                 (A) (A) (A) (A) (A) (A) (A) (A) (A) (A) (A) (A)
                 (A) (A) (A) (A) (A) (A) (A) (A) (A) (A) (A) (A)
                 (A) (A) (A) (A) (A) (A) (A) (A) (A) (A) (A) (A)
                 (A) (A) (A) (A) (A) (A) (A) (A) (A) (A) (A) (A)
                 (A) (A) (A) (A) (A) (A) (A) (A) (A) (A) (A) (A)
                 (A) (A) (A) (A) (A) (A) (A) (A) (A) (A) (A) (A)
                 (A) (A) (A) (A) (A) (A) (A) (A) (A) (A) (A) (A)
                 (A) (A) (A) (A) (A) (A) (A) (A) (A) (A) (A) (A)
                 (A) (A) (A) (A) (A) (A) (A) (A) (A) (A) (A) (A)
                 (A) (A) (A) (A) (A) (A) (A) (A) (A) (A) (A) (A)
                 (A) (A) (A) (A) (A) (A) (A) (A) (A) (A) (A) (A)
                 (A) (A) (A) (A) (A) (A) (A) (A) (A) (A) (A) (A)
                 (A) (A) (A) (A) (A) (A) (A) (A) (A) (A) (A) (A)
                 (A) (A) (A) (A) (A) (A) (A) (A) (A) (A) (A) (A)
                 (A) (A) (A) (A) (A) (A) (A) (A) (A) (A) (A) (A)
                 (A) (A) (A) (A) (A) (A) (A) (A) (A) (A) (A) (A)
                 (A) (A) (A) (A) (A) (A) (A) (A) (A) (A) (A) (A)
                 (A) (A) (A) (A) (A) (A) (A) (A) (A) (A) (A) (A)
                 (A) (A) (A) (A) (A) (A) (A) (A) (A) (A) (A) (A)
                 (A) (A) (A) (A) (A) (A) (A) (A) (A) (A) (A) (A)
                 (A) (A) (A) (A) (A) (A) (A) (A) (A) (A) (A) (A)
                 (A) (A) (A) (A) (A) (A) (A) (A) (A) (A) (A) (A)
                 (A) (A) (A) (A) (A) (A) (A) (A) (A) (A) (A) (A)
                 (A) (A) (A) (A) (A) (A) (A) (A) (A) (A) (A) (A)
                 (A) (A) (A) (A) (A) (A) (A) (A) (A) (A) (A) (A)
                 (A) (A) (A) (A) (A) (A)
 The electronic state is 1-A.
 Alpha  occ. eigenvalues --  -90.10315 -19.63423 -19.60114 -19.59085 -19.58499
 Alpha  occ. eigenvalues --  -19.58325 -14.84787 -14.80471 -14.69340 -10.65551
 Alpha  occ. eigenvalues --  -10.63213 -10.62409 -10.61508 -10.59117 -10.59106
 Alpha  occ. eigenvalues --  -10.59000 -10.57822 -10.57404 -10.56785 -10.56674
 Alpha  occ. eigenvalues --  -10.55997 -10.55727 -10.55559 -10.54999 -10.54936
 Alpha  occ. eigenvalues --  -10.54885 -10.54611 -10.54574 -10.54505 -10.53840
 Alpha  occ. eigenvalues --  -10.53581 -10.53574 -10.53269 -10.53225 -10.52712
 Alpha  occ. eigenvalues --  -10.52622  -8.41276  -6.33514  -6.33422  -6.33342
 Alpha  occ. eigenvalues --   -1.19160  -1.17824  -1.12926  -1.10185  -1.09887
 Alpha  occ. eigenvalues --   -1.09113  -1.06095  -0.97524  -0.95292  -0.94768
 Alpha  occ. eigenvalues --   -0.92184  -0.89836  -0.88566  -0.88176  -0.85040
 Alpha  occ. eigenvalues --   -0.84911  -0.83665  -0.83512  -0.83299  -0.80133
 Alpha  occ. eigenvalues --   -0.79242  -0.76331  -0.75636  -0.74674  -0.70935
 Alpha  occ. eigenvalues --   -0.70212  -0.69178  -0.68692  -0.68345  -0.68043
 Alpha  occ. eigenvalues --   -0.65879  -0.64736  -0.63925  -0.63440  -0.61602
 Alpha  occ. eigenvalues --   -0.60257  -0.59375  -0.59026  -0.58349  -0.56158
 Alpha  occ. eigenvalues --   -0.55480  -0.55199  -0.55096  -0.54185  -0.53748
 Alpha  occ. eigenvalues --   -0.53443  -0.53060  -0.52499  -0.51932  -0.51690
 Alpha  occ. eigenvalues --   -0.51105  -0.50972  -0.50612  -0.50086  -0.49832
 Alpha  occ. eigenvalues --   -0.49590  -0.49535  -0.48802  -0.48330  -0.47990
 Alpha  occ. eigenvalues --   -0.47803  -0.47186  -0.47025  -0.46973  -0.45894
 Alpha  occ. eigenvalues --   -0.45707  -0.45226  -0.43943  -0.43657  -0.43437
 Alpha  occ. eigenvalues --   -0.42800  -0.42626  -0.42199  -0.42004  -0.41875
 Alpha  occ. eigenvalues --   -0.41167  -0.40889  -0.40539  -0.39896  -0.39566
 Alpha  occ. eigenvalues --   -0.39360  -0.39255  -0.38886  -0.38395  -0.37959
 Alpha  occ. eigenvalues --   -0.37316  -0.36217  -0.35822  -0.35342  -0.35139
 Alpha  occ. eigenvalues --   -0.34340  -0.33063  -0.32034  -0.31656  -0.31482
 Alpha  occ. eigenvalues --   -0.29890  -0.28863  -0.28318  -0.27398  -0.25367
 Alpha virt. eigenvalues --   -0.01033   0.00666   0.03215   0.03761   0.08991
 Alpha virt. eigenvalues --    0.10168   0.10910   0.11815   0.12960   0.13546
 Alpha virt. eigenvalues --    0.13864   0.14289   0.15006   0.15480   0.15816
 Alpha virt. eigenvalues --    0.16198   0.16455   0.17247   0.17514   0.17984
 Alpha virt. eigenvalues --    0.18314   0.18385   0.18585   0.18919   0.19153
 Alpha virt. eigenvalues --    0.19438   0.19625   0.20049   0.20361   0.20455
 Alpha virt. eigenvalues --    0.20851   0.20982   0.21246   0.21642   0.21910
 Alpha virt. eigenvalues --    0.22230   0.22592   0.22804   0.22844   0.23213
 Alpha virt. eigenvalues --    0.23724   0.23916   0.24322   0.24407   0.24585
 Alpha virt. eigenvalues --    0.24903   0.25281   0.25331   0.25903   0.26425
 Alpha virt. eigenvalues --    0.27056   0.27429   0.27613   0.28148   0.28321
 Alpha virt. eigenvalues --    0.28665   0.29413   0.29571   0.30404   0.30567
 Alpha virt. eigenvalues --    0.30801   0.31129   0.31676   0.32140   0.32584
 Alpha virt. eigenvalues --    0.32938   0.33557   0.34633   0.35252   0.35454
 Alpha virt. eigenvalues --    0.35851   0.36644   0.37238   0.38219   0.38507
 Alpha virt. eigenvalues --    0.39602   0.39833   0.41252   0.41753   0.42940
 Alpha virt. eigenvalues --    0.44942   0.47216   0.47685   0.48608   0.50136
 Alpha virt. eigenvalues --    0.51117   0.52404   0.53485   0.53734   0.55291
 Alpha virt. eigenvalues --    0.55607   0.56191   0.56902   0.57049   0.57830
 Alpha virt. eigenvalues --    0.58008   0.58806   0.58900   0.59136   0.59323
 Alpha virt. eigenvalues --    0.59620   0.60390   0.60849   0.61024   0.61233
 Alpha virt. eigenvalues --    0.61480   0.61654   0.61849   0.62493   0.62739
 Alpha virt. eigenvalues --    0.63577   0.63849   0.64398   0.64736   0.65367
 Alpha virt. eigenvalues --    0.65951   0.66184   0.66927   0.67391   0.67600
 Alpha virt. eigenvalues --    0.67715   0.68444   0.68986   0.69393   0.70167
 Alpha virt. eigenvalues --    0.70707   0.71293   0.71747   0.71912   0.72815
 Alpha virt. eigenvalues --    0.73063   0.73686   0.74029   0.74617   0.75273
 Alpha virt. eigenvalues --    0.75568   0.75928   0.76317   0.76863   0.77474
 Alpha virt. eigenvalues --    0.78223   0.78749   0.79365   0.80001   0.80871
 Alpha virt. eigenvalues --    0.81337   0.81527   0.82618   0.83087   0.83704
 Alpha virt. eigenvalues --    0.84581   0.85259   0.85396   0.85494   0.86543
 Alpha virt. eigenvalues --    0.86926   0.87572   0.88113   0.88609   0.88757
 Alpha virt. eigenvalues --    0.89493   0.89708   0.90419   0.90621   0.90898
 Alpha virt. eigenvalues --    0.91273   0.91629   0.92262   0.92528   0.92836
 Alpha virt. eigenvalues --    0.93051   0.93459   0.93958   0.94141   0.94727
 Alpha virt. eigenvalues --    0.95285   0.95578   0.96306   0.96471   0.96635
 Alpha virt. eigenvalues --    0.96760   0.97094   0.97314   0.97795   0.98090
 Alpha virt. eigenvalues --    0.98565   0.99083   0.99178   0.99542   0.99631
 Alpha virt. eigenvalues --    1.00222   1.00320   1.01486   1.01762   1.02130
 Alpha virt. eigenvalues --    1.02451   1.03064   1.03624   1.04113   1.04922
 Alpha virt. eigenvalues --    1.05280   1.05660   1.05919   1.06406   1.06768
 Alpha virt. eigenvalues --    1.07774   1.08320   1.08902   1.10194   1.11200
 Alpha virt. eigenvalues --    1.11763   1.12494   1.12787   1.13535   1.14350
 Alpha virt. eigenvalues --    1.15052   1.15645   1.16678   1.17562   1.18615
 Alpha virt. eigenvalues --    1.18834   1.19356   1.19606   1.20979   1.21599
 Alpha virt. eigenvalues --    1.22434   1.23138   1.24223   1.24825   1.25431
 Alpha virt. eigenvalues --    1.26267   1.26873   1.27609   1.28046   1.29289
 Alpha virt. eigenvalues --    1.29809   1.30260   1.31336   1.32083   1.33114
 Alpha virt. eigenvalues --    1.33652   1.34664   1.35258   1.36315   1.36383
 Alpha virt. eigenvalues --    1.37668   1.38989   1.39607   1.40190   1.40786
 Alpha virt. eigenvalues --    1.41573   1.42430   1.43736   1.44105   1.44581
 Alpha virt. eigenvalues --    1.45336   1.46485   1.48030   1.48640   1.49338
 Alpha virt. eigenvalues --    1.49875   1.50210   1.51181   1.51687   1.52444
 Alpha virt. eigenvalues --    1.52533   1.53108   1.54083   1.55110   1.55371
 Alpha virt. eigenvalues --    1.55893   1.56583   1.57631   1.58470   1.58820
 Alpha virt. eigenvalues --    1.60247   1.61080   1.61886   1.62431   1.63773
 Alpha virt. eigenvalues --    1.67174   1.67624   1.68693   1.70302   1.71334
 Alpha virt. eigenvalues --    1.72684   1.73853   1.75646   1.75984   1.77028
 Alpha virt. eigenvalues --    1.78099   1.78418   1.79839   1.80030   1.81339
 Alpha virt. eigenvalues --    1.81771   1.83033   1.83302   1.84436   1.84693
 Alpha virt. eigenvalues --    1.86092   1.86608   1.86852   1.87389   1.88497
 Alpha virt. eigenvalues --    1.88715   1.89636   1.90374   1.91192   1.91443
 Alpha virt. eigenvalues --    1.91999   1.92233   1.92661   1.93375   1.93486
 Alpha virt. eigenvalues --    1.94030   1.94535   1.95050   1.95649   1.96332
 Alpha virt. eigenvalues --    1.97336   1.97710   1.98665   1.98865   1.99827
 Alpha virt. eigenvalues --    2.00309   2.01132   2.01524   2.02528   2.03244
 Alpha virt. eigenvalues --    2.03581   2.03853   2.04068   2.04678   2.05580
 Alpha virt. eigenvalues --    2.06098   2.06657   2.07010   2.07334   2.08434
 Alpha virt. eigenvalues --    2.08501   2.09524   2.09673   2.10445   2.11208
 Alpha virt. eigenvalues --    2.11766   2.12406   2.13068   2.13664   2.14192
 Alpha virt. eigenvalues --    2.15051   2.16005   2.16141   2.17052   2.17556
 Alpha virt. eigenvalues --    2.18705   2.19170   2.19885   2.20795   2.21172
 Alpha virt. eigenvalues --    2.21826   2.22439   2.22969   2.24119   2.24407
 Alpha virt. eigenvalues --    2.24895   2.25303   2.25952   2.27188   2.28512
 Alpha virt. eigenvalues --    2.29028   2.29502   2.30553   2.31066   2.31979
 Alpha virt. eigenvalues --    2.32339   2.32899   2.33183   2.34921   2.35274
 Alpha virt. eigenvalues --    2.36005   2.36571   2.37007   2.37966   2.38337
 Alpha virt. eigenvalues --    2.39467   2.39767   2.40071   2.41093   2.41925
 Alpha virt. eigenvalues --    2.42669   2.43549   2.44299   2.45091   2.46536
 Alpha virt. eigenvalues --    2.49103   2.50288   2.51625   2.51865   2.52107
 Alpha virt. eigenvalues --    2.53192   2.54075   2.55870   2.56310   2.56586
 Alpha virt. eigenvalues --    2.59578   2.60355   2.61480   2.62307   2.63446
 Alpha virt. eigenvalues --    2.63593   2.65415   2.66063   2.66789   2.67994
 Alpha virt. eigenvalues --    2.68448   2.68671   2.69820   2.71167   2.71408
 Alpha virt. eigenvalues --    2.72749   2.72937   2.74192   2.76488   2.76800
 Alpha virt. eigenvalues --    2.77610   2.78327   2.79609   2.79730   2.80393
 Alpha virt. eigenvalues --    2.83158   2.83982   2.86362   2.87358   2.89002
 Alpha virt. eigenvalues --    2.93053   2.93340   2.94079   2.95316   2.96390
 Alpha virt. eigenvalues --    2.99576   2.99991   3.01193   3.02538   3.10297
 Alpha virt. eigenvalues --    3.17676   3.20572   3.23649   3.42525   3.43119
 Alpha virt. eigenvalues --    3.96833   4.02934   4.07452   4.11003   4.12166
 Alpha virt. eigenvalues --    4.14301   4.15896   4.17229   4.18241   4.19878
 Alpha virt. eigenvalues --    4.22185   4.24416   4.24847   4.26396   4.26951
 Alpha virt. eigenvalues --    4.30970   4.31463   4.33028   4.34741   4.36242
 Alpha virt. eigenvalues --    4.37175   4.38251   4.40219   4.41268   4.44596
 Alpha virt. eigenvalues --    4.46981   4.49271   4.52595   4.58646   4.59198
 Alpha virt. eigenvalues --    4.62162   4.64351   4.65938   4.75158   4.75679
 Alpha virt. eigenvalues --    4.78317
          Condensed to atoms (all electrons):
 Mulliken charges:
               1
     1  C   -0.303933
     2  C   -0.304176
     3  C   -0.309626
     4  C   -0.073051
     5  C    0.064251
     6  C   -0.304974
     7  H    0.166421
     8  H    0.161027
     9  H    0.159146
    10  H    0.145752
    11  H    0.156793
    12  H    0.211891
    13  H    0.141196
    14  H    0.179406
    15  H    0.150078
    16  H    0.150106
    17  N   -0.424011
    18  C    0.098953
    19  C    0.084639
    20  C   -0.227254
    21  H    0.204723
    22  C   -0.226456
    23  H    0.263378
    24  C    0.427689
    25  H    0.187905
    26  H    0.207416
    27  N   -0.528054
    28  C   -0.158217
    29  H    0.178321
    30  H    0.198812
    31  C   -0.146500
    32  H    0.169588
    33  H    0.194909
    34  N   -0.758851
    35  S    1.249324
    36  O   -0.644817
    37  O   -0.669920
    38  C    0.049061
    39  C   -0.176446
    40  C   -0.187737
    41  C   -0.169638
    42  C   -0.161508
    43  C   -0.198797
    44  H    0.204689
    45  H    0.139172
    46  H    0.156576
    47  H    0.162012
    48  H    0.157635
    49  O   -0.715129
    50  H    0.483466
    51  C    0.653680
    52  O   -0.521936
    53  O   -0.646542
    54  H    0.485292
    55  C   -0.370247
    56  H    0.202131
    57  H    0.164958
    58  C   -0.064426
    59  H    0.127541
    60  H    0.152003
    61  C   -0.659262
    62  H    0.223169
    63  H    0.187158
    64  H    0.207076
    65  C   -0.288431
    66  H    0.144862
    67  H    0.163319
    68  C   -0.480336
    69  H    0.158969
    70  H    0.158412
    71  H    0.151176
    72  C   -0.337018
    73  H    0.184397
    74  H    0.169924
    75  C   -0.335872
    76  H    0.181704
    77  H    0.173056
 Sum of Mulliken charges =  -0.00000
 Mulliken charges with hydrogens summed into heavy atoms:
               1
     1  C   -0.001388
     2  C    0.015997
     3  C    0.006901
     4  C    0.138841
     5  C    0.205447
     6  C    0.024510
    17  N   -0.424011
    18  C    0.303676
    19  C    0.348017
    20  C   -0.039349
    22  C   -0.019040
    24  C    0.427689
    27  N   -0.528054
    28  C    0.218916
    31  C    0.217997
    34  N   -0.758851
    35  S    1.249324
    36  O   -0.644817
    37  O   -0.669920
    38  C    0.049061
    39  C    0.028244
    40  C   -0.048565
    41  C   -0.013062
    42  C    0.000504
    43  C   -0.041162
    49  O   -0.231662
    51  C    0.653680
    52  O   -0.521936
    53  O   -0.161249
    55  C   -0.003159
    58  C    0.215118
    61  C   -0.041859
    65  C    0.019750
    68  C   -0.011779
    72  C    0.017304
    75  C    0.018888
 Electronic spatial extent (au):  <R**2>=          15003.8813
 Charge=             -0.0000 electrons
 Dipole moment (field-independent basis, Debye):
    X=              1.5423    Y=             -0.2760    Z=             -6.6110  Tot=              6.7941
 Quadrupole moment (field-independent basis, Debye-Ang):
   XX=           -198.8749   YY=           -222.6062   ZZ=           -222.3790
   XY=            -11.7359   XZ=             -0.4673   YZ=             12.5824
 Traceless Quadrupole moment (field-independent basis, Debye-Ang):
   XX=             15.7451   YY=             -7.9862   ZZ=             -7.7589
   XY=            -11.7359   XZ=             -0.4673   YZ=             12.5824
 Octapole moment (field-independent basis, Debye-Ang**2):
  XXX=             72.4680  YYY=            -29.8590  ZZZ=             -0.5976  XYY=             20.9606
  XXY=            -11.9815  XXZ=            -26.2541  XZZ=             -6.2669  YZZ=             19.5119
  YYZ=             10.0905  XYZ=            -16.5584
 Hexadecapole moment (field-independent basis, Debye-Ang**3):
 XXXX=         -10020.6965 YYYY=          -5784.7273 ZZZZ=          -3806.6498 XXXY=           -170.5265
 XXXZ=             -8.7401 YYYX=            -96.9836 YYYZ=             80.6906 ZZZX=            -74.2357
 ZZZY=             16.4260 XXYY=          -2633.1670 XXZZ=          -2370.8026 YYZZ=          -1725.1058
 XXYZ=             48.9203 YYXZ=             59.4276 ZZXY=            -46.6282
 N-N= 4.897379321344D+03 E-N=-1.444730904664D+04  KE= 1.976476573513D+03
 No NMR shielding tensors so no spin-rotation constants.
 Leave Link  601 at Thu Feb  7 23:20:43 2019, MaxMem=   104857600 cpu:              27.0 elap:               1.3
 (Enter /home/xinyan/g16/l701.exe)
 ... and contract with generalized density number  0.
 Compute integral first derivatives.
 R6Disp: Adding Grimme-D3 dispersion energy 1st derivatives to the gradient.
 Leave Link  701 at Thu Feb  7 23:20:44 2019, MaxMem=   104857600 cpu:              24.1 elap:               1.1
 (Enter /home/xinyan/g16/l702.exe)
 L702 exits ... SP integral derivatives will be done elsewhere.
 Leave Link  702 at Thu Feb  7 23:20:44 2019, MaxMem=   104857600 cpu:               1.4 elap:               0.1
 (Enter /home/xinyan/g16/l703.exe)
 Integral derivatives from FoFJK, PRISM(SPDF).
 Compute integral first derivatives, UseDBF=F ICtDFT=           0.
 Calling FoFJK, ICntrl=      2127 FMM=T ISym2X=0 I1Cent= 0 IOpClX= 0 NMat=1 NMatS=1 NMatT=0.
 FoFJK:  IHMeth= 1 ICntrl=    2127 DoSepK=F KAlg= 0 I1Cent=           0 FoldK=F
 IRaf=         0 NMat=       1 IRICut=       1 DoRegI=T DoRafI=F ISym2E= 0 IDoP0=0 IntGTp=1.
 FoFCou: FMM=T IPFlag=           0 FMFlag=      100000 FMFlg1=        2001
         NFxFlg=           0 DoJE=F BraDBF=F KetDBF=F FulRan=T
         wScrn=  0.000000 ICntrl=      2127 IOpCl=  0 I1Cent=           0 NGrid=           0
         NMat0=    1 NMatS0=      1 NMatT0=    0 NMatD0=    1 NMtDS0=    0 NMtDT0=    0
 Symmetry not used in FoFCou.
 FMM levels:  10  Number of levels for PrismC:   9
 Leave Link  703 at Thu Feb  7 23:21:17 2019, MaxMem=   104857600 cpu:             772.9 elap:              33.2
 (Enter /home/xinyan/g16/l716.exe)
 Dipole        = 6.06774782D-01-1.08599014D-01-2.60096117D+00
 ***** Axes restored to original set *****
 -------------------------------------------------------------------
 Center     Atomic                   Forces (Hartrees/Bohr)
 Number     Number              X              Y              Z
 -------------------------------------------------------------------
      1        6           0.000018605   -0.000115722    0.000004518
      2        6           0.000129058   -0.000035904    0.000159507
      3        6           0.000085242    0.000007508    0.000045456
      4        6           0.000055783    0.000190079    0.000180256
      5        6          -0.000014410    0.000165319   -0.000045261
      6        6           0.000046416    0.000112263    0.000169122
      7        1           0.000077880    0.000070348    0.000062159
      8        1           0.000085403   -0.000032558    0.000082097
      9        1           0.000024838   -0.000013381    0.000127145
     10        1          -0.000079857    0.000034389    0.000137126
     11        1          -0.000001894   -0.000092965    0.000170590
     12        1           0.000124528    0.000026220    0.000171308
     13        1          -0.000027074   -0.000096779    0.000214242
     14        1           0.000102855   -0.000072838    0.000152870
     15        1           0.000028274    0.000021528    0.000130833
     16        1          -0.000005771    0.000093778    0.000069526
     17        7           0.000094546    0.000042468    0.000062332
     18        6           0.000018801    0.000023712    0.000004531
     19        6           0.000064047    0.000060735    0.000008747
     20        6           0.000061998   -0.000008508   -0.000010044
     21        1           0.000071543    0.000101841    0.000075449
     22        6           0.000026249   -0.000033687   -0.000023812
     23        1           0.000056147    0.000042089    0.000012327
     24        6           0.000052805   -0.000077968   -0.000071246
     25        1           0.000043594    0.000003425   -0.000019000
     26        1           0.000043646   -0.000073898   -0.000075919
     27        7           0.000077499   -0.000063454   -0.000076342
     28        6           0.000061678   -0.000175351   -0.000143399
     29        1           0.000037980   -0.000149198   -0.000181708
     30        1           0.000122637   -0.000191242   -0.000106285
     31        6           0.000069771   -0.000095412   -0.000118868
     32        1          -0.000001911   -0.000081138   -0.000104869
     33        1           0.000063002   -0.000048412   -0.000036717
     34        7           0.000153172    0.000157467    0.000055387
     35       16           0.000006672    0.000113394   -0.000107428
     36        8           0.000032351    0.000036204   -0.000182468
     37        8           0.000096673    0.000028255    0.000048047
     38        6          -0.000201797    0.000253342   -0.000038276
     39        6          -0.000118835    0.000170322   -0.000070234
     40        6           0.000138994   -0.000014672    0.000069722
     41        6          -0.000020333   -0.000019909   -0.000220324
     42        6          -0.000088521    0.000007013   -0.000315174
     43        6          -0.000349146    0.000175662   -0.000337124
     44        1          -0.000179570    0.000248276    0.000176633
     45        1           0.000130609   -0.000019011    0.000079886
     46        1           0.000134055   -0.000141901   -0.000233850
     47        1          -0.000100962   -0.000011260   -0.000485383
     48        1          -0.000363259    0.000219461   -0.000378757
     49        8          -0.000148784    0.000343678   -0.000255672
     50        1           0.000246553    0.000548896    0.000072301
     51        6           0.000217544   -0.000165435    0.000015078
     52        8          -0.000031515   -0.000010982    0.000249788
     53        8          -0.000187067    0.000142748    0.000062183
     54        1          -0.000097319    0.000075393    0.000136894
     55        6           0.000167715   -0.000076816    0.000118408
     56        1           0.000404894   -0.000120366    0.000153892
     57        1           0.000160961   -0.000278715   -0.000143656
     58        6          -0.000391065    0.000110791    0.000063653
     59        1          -0.000558671   -0.000097244   -0.000054477
     60        1          -0.000693072    0.000596792    0.000111745
     61        6          -0.000072411   -0.000092887    0.000105004
     62        1          -0.000210739   -0.000023511    0.000170160
     63        1          -0.000167772   -0.000228863    0.000079263
     64        1          -0.000085682   -0.000195859    0.000035721
     65        6           0.000078881   -0.000046628    0.000097519
     66        1           0.000070654    0.000013312    0.000049914
     67        1           0.000057303   -0.000101004    0.000211723
     68        6          -0.000006082   -0.000008087    0.000142280
     69        1          -0.000123043    0.000069806    0.000180423
     70        1           0.000002520   -0.000108718    0.000208979
     71        1           0.000045438    0.000060880    0.000037910
     72        6           0.000058140   -0.000183835   -0.000191828
     73        1           0.000100795   -0.000243479   -0.000196756
     74        1           0.000007341   -0.000188595   -0.000218751
     75        6           0.000058541   -0.000189330   -0.000107838
     76        1           0.000140381   -0.000180417   -0.000075356
     77        1           0.000071549   -0.000161451   -0.000145836
 -------------------------------------------------------------------
 Cartesian Forces:  Max     0.000693072 RMS     0.000157936
 Z-matrix is all fixed cartesians, so copy forces.
 Leave Link  716 at Thu Feb  7 23:21:17 2019, MaxMem=   104857600 cpu:               2.3 elap:               0.1
 (Enter /home/xinyan/g16/l103.exe)

 GradGradGradGradGradGradGradGradGradGradGradGradGradGradGradGradGradGrad
 Berny optimization.
 Search for a local minimum.
 Step number   1 out of a maximum of    2
 All quantities printed in internal units (Hartrees-Bohrs-Radians)
 Second derivative matrix not updated -- first step.
 ITU=  0
     Eigenvalues ---   -0.00000  -0.00000   0.00000   0.00000   0.00000
     Eigenvalues ---    0.00000   0.00000   0.00000   0.00000   0.00000
     Eigenvalues ---    0.00000   0.00000   0.00013   0.00018   0.00034
     Eigenvalues ---    0.00063   0.00115   0.00133   0.00167   0.00179
     Eigenvalues ---    0.00203   0.00219   0.00277   0.00284   0.00393
     Eigenvalues ---    0.00444   0.00504   0.00509   0.00589   0.00594
     Eigenvalues ---    0.00662   0.00673   0.00783   0.00974   0.01105
     Eigenvalues ---    0.01224   0.01646   0.01723   0.01729   0.01847
     Eigenvalues ---    0.01885   0.02009   0.02215   0.02390   0.02506
     Eigenvalues ---    0.02552   0.02733   0.02799   0.03090   0.03397
     Eigenvalues ---    0.03509   0.03548   0.03563   0.03646   0.04080
     Eigenvalues ---    0.04147   0.04217   0.04316   0.04634   0.04790
     Eigenvalues ---    0.04858   0.04880   0.04999   0.05050   0.05090
     Eigenvalues ---    0.05104   0.05133   0.05162   0.05302   0.05352
     Eigenvalues ---    0.05499   0.05596   0.05663   0.05693   0.05753
     Eigenvalues ---    0.05763   0.05794   0.06140   0.06238   0.06408
     Eigenvalues ---    0.06509   0.06578   0.06845   0.06964   0.07044
     Eigenvalues ---    0.07089   0.07210   0.07231   0.07290   0.07344
     Eigenvalues ---    0.07554   0.07922   0.07942   0.08019   0.08122
     Eigenvalues ---    0.08168   0.08571   0.08625   0.09113   0.09684
     Eigenvalues ---    0.09757   0.10026   0.10090   0.10217   0.10602
     Eigenvalues ---    0.11200   0.11421   0.11532   0.11917   0.12256
     Eigenvalues ---    0.12797   0.12913   0.13013   0.13020   0.13279
     Eigenvalues ---    0.13731   0.13777   0.13943   0.14195   0.14357
     Eigenvalues ---    0.15809   0.16367   0.16620   0.16680   0.16764
     Eigenvalues ---    0.16887   0.17203   0.17320   0.17633   0.17713
     Eigenvalues ---    0.18627   0.19112   0.20288   0.20633   0.20695
     Eigenvalues ---    0.20768   0.21783   0.22003   0.23137   0.24725
     Eigenvalues ---    0.26456   0.27611   0.29723   0.29798   0.30107
     Eigenvalues ---    0.30265   0.31602   0.32451   0.34283   0.34791
     Eigenvalues ---    0.35041   0.36775   0.39318   0.41786   0.42355
     Eigenvalues ---    0.44054   0.44827   0.45082   0.48442   0.49281
     Eigenvalues ---    0.50301   0.56088   0.57438   0.59199   0.62583
     Eigenvalues ---    0.65109   0.65777   0.67974   0.68273   0.69228
     Eigenvalues ---    0.70666   0.75517   0.78138   0.78396   0.79629
     Eigenvalues ---    0.82222   0.82982   0.83922   0.85767   0.87099
     Eigenvalues ---    0.88976   0.89489   0.90499   0.91125   0.92396
     Eigenvalues ---    0.93418   0.94021   0.94464   0.94582   0.95423
     Eigenvalues ---    0.96022   0.97470   0.99747   0.99789   1.00236
     Eigenvalues ---    1.01213   1.02082   1.04073   1.04417   1.05491
     Eigenvalues ---    1.05943   1.06219   1.06457   1.07954   1.08798
     Eigenvalues ---    1.10099   1.14147   1.16316   1.18024   1.20221
     Eigenvalues ---    1.23151   1.24231   1.27967   1.36899   1.39525
     Eigenvalues ---    1.48351   1.54026   1.56967   1.59405   1.60481
     Eigenvalues ---    1.70851   1.75551   1.81640   2.11930   2.28670
 Eigenvalue     1 is  -7.77D-16 should be greater than     0.000000 Eigenvector:
                          Y54       Y52       Y67       Y51       Y53
   1                    0.18417   0.18417   0.18417   0.18417   0.18417
                          Y65       Y56       Y66       Y55       Y69
   1                    0.18417   0.18417   0.18417   0.18417   0.18417
 Eigenvalue     2 is  -4.44D-16 should be greater than     0.000000 Eigenvector:
                          X69       X70       X68       X71       X67
   1                    0.20625   0.20625   0.20625   0.20625   0.20625
                          X65       X66       X56       X55       X57
   1                    0.20625   0.20625   0.20625   0.20625   0.20625
 Eigenvalue     3 is   0.00D+00 Eigenvector:
                          Y49       Y60       Y50       Y58       Y59
   1                    0.20605   0.20605   0.20605   0.20605   0.20605
                          Y44       Y38       Y39       Y48       Y43
   1                    0.20605   0.20605   0.20605   0.20605   0.20605
 Eigenvalue     4 is   3.18D-09 Eigenvector:
                          Z44       Z49       Z50       Z45       Z39
   1                    0.27126   0.24851   0.24510   0.21910   0.20187
                          X59       Z60       Z40       Z58       X60
   1                   -0.19958   0.18661   0.17250   0.17241  -0.16769
 Eigenvalue     5 is   7.43D-09 Eigenvector:
                          Z47       X45       X46       Z48       X40
   1                    0.24403  -0.24328  -0.24144   0.18938  -0.18628
                          X41       Z42       Y49       Z43       Y60
   1                   -0.18553   0.17043  -0.14979   0.13975  -0.13839
 Eigenvalue     6 is   9.27D-09 Eigenvector:
                          Z54       Z53       Z52       Z51       Z69
   1                    0.45022   0.34426   0.31824   0.26022  -0.25811
                          Z70       Z71       Z68       Y66       Y69
   1                   -0.23788  -0.20803  -0.18931  -0.18830  -0.18229
 Eigenvalue     7 is   2.49D-08 Eigenvector:
                          X54       X69       X53       X70       Y54
   1                    0.41199  -0.34703   0.34552  -0.25644  -0.23926
                          X68       Y71       X51       X52       X71
   1                   -0.22630   0.22026   0.20518   0.18662  -0.17524
 Eigenvalue     8 is   4.85D-08 Eigenvector:
                          X50       Y47       Y44       X49       Y60
   1                    0.35971  -0.35840   0.27548   0.26520   0.24233
                          Y48       Y42       X47       Y49       Y46
   1                   -0.21979  -0.21739  -0.21215   0.20510  -0.17364
 Eigenvalue     9 is   8.54D-08 Eigenvector:
                          Y45       Y59       Y46       X45       Y40
   1                    0.30604  -0.24257   0.23346   0.20635   0.19993
                          Y48       X46       Z50       Y41       X40
   1                   -0.17614   0.16741  -0.16019   0.15941   0.14267
 Eigenvalue    10 is   1.13D-07 Eigenvector:
                          X59       X60       X48       X58       Y48
   1                    0.20521   0.19218   0.17013   0.15352   0.15052
                          Y73       Y77       Y74       Y59       Y72
   1                    0.15007   0.13590   0.13518   0.13031   0.13000
 Eigenvalue    11 is   1.83D-07 Eigenvector:
                          Y64       Y62       Y61       Y63       Z76
   1                    0.25125   0.20863   0.20289   0.19003  -0.15192
                          Y37       Y7        Z60       Y16       Z77
   1                    0.15179  -0.14264   0.14132  -0.14119  -0.14020
 Eigenvalue    12 is   3.81D-06 Eigenvector:
                          X52       X66       X56       Z67       Z57
   1                    0.34040   0.33362  -0.31257  -0.29710   0.28336
                          X70       Z71       Y52       Y67       Y57
   1                   -0.27276   0.25434  -0.19904  -0.19541   0.18853
 Quadratic step=1.858D+01 exceeds max=3.000D-01 adjusted using Lamda=-7.037D-03.
 Angle between NR and scaled steps=  24.27 degrees.
 Angle between quadratic step and forces=  20.70 degrees.
 Linear search not attempted -- first point.
 B after Tr=     0.000272    0.001179   -0.000334
         Rot=    1.000000    0.000107   -0.000004   -0.000004 Ang=   0.01 deg.
 Variable       Old X    -DE/DX   Delta X   Delta X   Delta X     New X
                                 (Linear)    (Quad)   (Total)
    X1       -9.35626   0.00002   0.00000   0.00057   0.00083  -9.35543
    Y1        0.45104  -0.00012   0.00000  -0.00364  -0.00266   0.44838
    Z1       -0.57041   0.00000   0.00000   0.01756   0.01720  -0.55322
    X2       -9.63921   0.00013   0.00000   0.00633   0.00660  -9.63261
    Y2       -1.92590  -0.00004   0.00000  -0.00246  -0.00183  -1.92772
    Z2       -2.19762   0.00016   0.00000   0.01511   0.01525  -2.18237
    X3       -7.08721   0.00009   0.00000   0.00727   0.00754  -7.07967
    Y3       -2.71899   0.00001   0.00000   0.00649   0.00691  -2.71208
    Z3       -3.31868   0.00005   0.00000   0.01171   0.01200  -3.30668
    X4       -5.21608   0.00006   0.00000   0.00943   0.00972  -5.20636
    Y4       -3.15416   0.00019   0.00000   0.00916   0.01005  -3.14411
    Z4       -1.16932   0.00018   0.00000   0.01029   0.01066  -1.15866
    X5       -4.83142  -0.00001   0.00000   0.00613   0.00641  -4.82502
    Y5       -0.71269   0.00017   0.00000   0.00958   0.01081  -0.70188
    Z5        0.42292  -0.00005   0.00000   0.01037   0.01022   0.43314
    X6       -7.39713   0.00005   0.00000   0.00532   0.00560  -7.39152
    Y6        0.07710   0.00011   0.00000   0.00166   0.00311   0.08021
    Z6        1.52758   0.00017   0.00000   0.01437   0.01407   1.54165
    X7       -7.27526   0.00008   0.00000   0.01103   0.01131  -7.26395
    Y7       -4.42808   0.00007   0.00000   0.00744   0.00761  -4.42047
    Z7       -4.47368   0.00006   0.00000   0.00974   0.01040  -4.46328
    X8      -10.38788   0.00009   0.00000   0.01199   0.01228 -10.37560
    Y8       -3.47636  -0.00003   0.00000  -0.00615  -0.00527  -3.48163
    Z8       -1.04007   0.00008   0.00000   0.01374   0.01422  -1.02585
    X9      -10.99592   0.00002   0.00000   0.00382   0.00408 -10.99184
    Y9       -1.60387  -0.00001   0.00000  -0.00437  -0.00407  -1.60794
    Z9       -3.72663   0.00013   0.00000   0.01692   0.01701  -3.70962
   X10       -8.74550  -0.00008   0.00000  -0.00798  -0.00774  -8.75324
   Y10        2.02520   0.00003   0.00000   0.00058   0.00131   2.02651
   Z10       -1.78027   0.00014   0.00000   0.01868   0.01798  -1.76229
   X11      -11.18775  -0.00000   0.00000  -0.00009   0.00018 -11.18757
   Y11        0.98130  -0.00009   0.00000  -0.01190  -0.01076   0.97054
   Z11        0.23461   0.00017   0.00000   0.02155   0.02109   0.25570
   X12       -5.92807   0.00012   0.00000   0.01240   0.01271  -5.91536
   Y12       -4.64612   0.00003   0.00000   0.00842   0.00957  -4.63655
   Z12        0.07098   0.00017   0.00000   0.01143   0.01212   0.08310
   X13       -4.30410  -0.00003   0.00000   0.00194   0.00220  -4.30190
   Y13        0.75803  -0.00010   0.00000   0.01123   0.01217   0.77020
   Z13       -0.94959   0.00021   0.00000   0.01154   0.01108  -0.93851
   X14       -8.03878   0.00010   0.00000   0.01232   0.01262  -8.02616
   Y14       -1.36501  -0.00007   0.00000  -0.00157   0.00016  -1.36484
   Z14        2.87269   0.00015   0.00000   0.01458   0.01460   2.88728
   X15       -7.11688   0.00003   0.00000   0.00160   0.00188  -7.11500
   Y15        1.84343   0.00002   0.00000   0.00174   0.00341   1.84684
   Z15        2.57432   0.00013   0.00000   0.01533   0.01466   2.58897
   X16       -6.42424  -0.00001   0.00000   0.00171   0.00196  -6.42228
   Y16       -1.18669   0.00009   0.00000   0.01000   0.01016  -1.17654
   Z16       -4.55288   0.00007   0.00000   0.01294   0.01291  -4.53997
   X17       -2.69522   0.00009   0.00000   0.00819   0.00848  -2.68674
   Y17       -4.02463   0.00004   0.00000   0.00872   0.00945  -4.01518
   Z17       -2.02240   0.00006   0.00000   0.00657   0.00711  -2.01529
   X18       -1.43600   0.00002   0.00000   0.00709   0.00736  -1.42864
   Y18       -2.77622   0.00002   0.00000   0.00808   0.00842  -2.76780
   Z18       -3.86474   0.00000   0.00000   0.00537   0.00564  -3.85910
   X19       -1.38109   0.00006   0.00000   0.00767   0.00798  -1.37310
   Y19       -5.57326   0.00006   0.00000   0.00317   0.00424  -5.56901
   Z19       -0.46612   0.00001   0.00000   0.00137   0.00224  -0.46388
   X20        1.11469   0.00006   0.00000   0.00574   0.00601   1.12070
   Y20       -2.99837  -0.00001   0.00000   0.00132   0.00161  -2.99676
   Z20       -4.18349  -0.00001   0.00000  -0.00107  -0.00077  -4.18427
   X21       -2.56075   0.00007   0.00000   0.00771   0.00796  -2.55279
   Y21       -1.54542   0.00010   0.00000   0.01262   0.01271  -1.53271
   Z21       -5.04954   0.00008   0.00000   0.00953   0.00954  -5.03999
   X22        1.17331   0.00003   0.00000   0.00616   0.00647   1.17979
   Y22       -5.88413  -0.00003   0.00000  -0.00446  -0.00342  -5.88755
   Z22       -0.66103  -0.00002   0.00000  -0.00573  -0.00482  -0.66584
   X23       -2.46617   0.00006   0.00000   0.00848   0.00881  -2.45736
   Y23       -6.47358   0.00004   0.00000   0.00368   0.00505  -6.46852
   Z23        1.02185   0.00001   0.00000   0.00223   0.00330   1.02515
   X24        2.55960   0.00005   0.00000   0.00582   0.00611   2.56571
   Y24       -4.45059  -0.00008   0.00000  -0.00595  -0.00527  -4.45586
   Z24       -2.44268  -0.00007   0.00000  -0.00719  -0.00659  -2.44927
   X25        2.01294   0.00004   0.00000   0.00508   0.00533   2.01827
   Y25       -1.95766   0.00000   0.00000   0.00094   0.00092  -1.95675
   Z25       -5.69715  -0.00002   0.00000  -0.00175  -0.00168  -5.69883
   X26        2.09782   0.00004   0.00000   0.00613   0.00646   2.10429
   Y26       -7.06310  -0.00007   0.00000  -0.00974  -0.00839  -7.07149
   Z26        0.72745  -0.00008   0.00000  -0.01020  -0.00904   0.71841
   X27        5.09219   0.00008   0.00000   0.00580   0.00609   5.09828
   Y27       -4.43838  -0.00006   0.00000  -0.01326  -0.01257  -4.45095
   Z27       -2.45158  -0.00008   0.00000  -0.01388  -0.01330  -2.46488
   X28        6.50882   0.00006   0.00000   0.00869   0.00900   6.51782
   Y28       -5.50562  -0.00018   0.00000  -0.02307  -0.02191  -5.52753
   Z28       -0.31721  -0.00014   0.00000  -0.02068  -0.01988  -0.33709
   X29        6.26924   0.00004   0.00000   0.00388   0.00421   6.27345
   Y29       -7.55711  -0.00015   0.00000  -0.02271  -0.02154  -7.57865
   Z29       -0.23181  -0.00018   0.00000  -0.02611  -0.02487  -0.25669
   X30        5.80486   0.00012   0.00000   0.01568   0.01600   5.82086
   Y30       -4.66878  -0.00019   0.00000  -0.02659  -0.02506  -4.69383
   Z30        1.44842  -0.00011   0.00000  -0.01623  -0.01561   1.43281
   X31        6.54939   0.00007   0.00000   0.00740   0.00766   6.55706
   Y31       -2.46528  -0.00010   0.00000  -0.01369  -0.01326  -2.47854
   Z31       -3.75942  -0.00012   0.00000  -0.01267  -0.01253  -3.77195
   X32        7.01398  -0.00000   0.00000   0.00093   0.00118   7.01517
   Y32       -3.07842  -0.00008   0.00000  -0.01010  -0.01008  -3.08850
   Z32       -5.68403  -0.00010   0.00000  -0.01537  -0.01510  -5.69913
   X33        5.44912   0.00006   0.00000   0.01153   0.01178   5.46090
   Y33       -0.71830  -0.00005   0.00000  -0.01068  -0.01027  -0.72858
   Z33       -3.83225  -0.00004   0.00000  -0.00540  -0.00561  -3.83787
   X34       -2.70856   0.00015   0.00000   0.00602   0.00632  -2.70225
   Y34       -0.85363   0.00016   0.00000   0.01198   0.01360  -0.84003
   Z34        2.14153   0.00006   0.00000   0.01026   0.01012   2.15166
   X35       -2.76639   0.00001   0.00000   0.00527   0.00560  -2.76079
   Y35       -2.66661   0.00011   0.00000  -0.00020   0.00192  -2.66469
   Z35        4.51255  -0.00011   0.00000   0.00062   0.00088   4.51343
   X36       -4.81000   0.00003   0.00000   0.01224   0.01259  -4.79741
   Y36       -4.57427   0.00004   0.00000  -0.00695  -0.00487  -4.57914
   Z36        4.44091  -0.00018   0.00000  -0.01862  -0.01794   4.42297
   X37       -0.19623   0.00010   0.00000   0.00767   0.00801  -0.18822
   Y37       -3.73289   0.00003   0.00000   0.00679   0.00902  -3.72387
   Z37        4.92512   0.00005   0.00000   0.00420   0.00466   4.92978
   X38       -1.76754  -0.00020   0.00000  -0.03614  -0.03591  -1.80344
   Y38        5.07618   0.00025   0.00000   0.02679   0.02799   5.10417
   Z38        0.16051  -0.00004   0.00000  -0.00972  -0.01113   0.14938
   X39       -0.57074  -0.00012   0.00000  -0.01479  -0.01456  -0.58529
   Y39        3.76214   0.00017   0.00000   0.02304   0.02383   3.78598
   Z39       -1.79889  -0.00007   0.00000   0.00585   0.00472  -1.79417
   X40       -1.65629   0.00014   0.00000   0.00471   0.00492  -1.65137
   Y40        3.70985  -0.00001   0.00000   0.00593   0.00620   3.71605
   Z40       -4.19659   0.00007   0.00000  -0.00229  -0.00341  -4.20000
   X41       -3.97094  -0.00002   0.00000   0.00407   0.00427  -3.96667
   Y41        4.88899  -0.00002   0.00000  -0.00474  -0.00460   4.88439
   Z41       -4.65198  -0.00022   0.00000  -0.02709  -0.02843  -4.68041
   X42       -5.19601  -0.00009   0.00000  -0.01599  -0.01579  -5.21180
   Y42        6.14044   0.00001   0.00000   0.00154   0.00209   6.14253
   Z42       -2.68723  -0.00032   0.00000  -0.04360  -0.04521  -2.73244
   X43       -4.08755  -0.00035   0.00000  -0.03661  -0.03639  -4.12395
   Y43        6.23464   0.00018   0.00000   0.01654   0.01761   6.25225
   Z43       -0.30126  -0.00034   0.00000  -0.03460  -0.03624  -0.33750
   X44        1.16186  -0.00018   0.00000  -0.01446  -0.01422   1.14764
   Y44        2.72200   0.00025   0.00000   0.03124   0.03214   2.75414
   Z44       -1.41153   0.00018   0.00000   0.02526   0.02433  -1.38720
   X45       -0.69198   0.00013   0.00000   0.02023   0.02044  -0.67154
   Y45        2.73270  -0.00002   0.00000   0.00071   0.00067   2.73336
   Z45       -5.72659   0.00008   0.00000   0.01083   0.00992  -5.71667
   X46       -4.81621   0.00013   0.00000   0.01925   0.01943  -4.79678
   Y46        4.83343  -0.00014   0.00000  -0.01770  -0.01796   4.81547
   Z46       -6.52124  -0.00023   0.00000  -0.03353  -0.03486  -6.55609
   X47       -7.01213  -0.00010   0.00000  -0.01580  -0.01561  -7.02774
   Y47        7.04216  -0.00001   0.00000  -0.00511  -0.00464   7.03752
   Z47       -3.00415  -0.00049   0.00000  -0.06369  -0.06547  -3.06963
   X48       -5.04217  -0.00036   0.00000  -0.05246  -0.05223  -5.09440
   Y48        7.20451   0.00022   0.00000   0.02190   0.02329   7.22780
   Z48        1.23909  -0.00038   0.00000  -0.04780  -0.04964   1.18946
   X49        0.49137  -0.00015   0.00000  -0.01407  -0.01379   0.47757
   Y49        2.91932   0.00034   0.00000   0.06050   0.06244   2.98176
   Z49        3.52047  -0.00026   0.00000  -0.00277  -0.00375   3.51672
   X50       -0.63013   0.00025   0.00000   0.01723   0.01751  -0.61262
   Y50        1.52161   0.00055   0.00000   0.04040   0.04219   1.56379
   Z50        2.89066   0.00007   0.00000  -0.01186  -0.01253   2.87813
   X51        4.47224   0.00022   0.00000   0.00745   0.00774   4.47999
   Y51        0.39694  -0.00017   0.00000  -0.00868  -0.00691   0.39003
   Z51        2.58745   0.00002   0.00000   0.01476   0.01431   2.60176
   X52        3.78983  -0.00003   0.00000  -0.00337  -0.00309   3.78674
   Y52       -0.30682  -0.00001   0.00000  -0.00421  -0.00289  -0.30971
   Z52        0.50354   0.00025   0.00000   0.01694   0.01664   0.52018
   X53        4.02054  -0.00019   0.00000  -0.00360  -0.00328   4.01726
   Y53       -0.87105   0.00014   0.00000  -0.00095   0.00126  -0.86979
   Z53        4.69682   0.00006   0.00000   0.01690   0.01673   4.71355
   X54        2.59044  -0.00010   0.00000  -0.01434  -0.01402   2.57642
   Y54       -2.07131   0.00008   0.00000   0.01135   0.01351  -2.05780
   Z54        4.45395   0.00014   0.00000   0.01922   0.01930   4.47326
   X55        6.03493   0.00017   0.00000   0.02452   0.02479   6.05972
   Y55        2.74621  -0.00008   0.00000  -0.01919  -0.01732   2.72889
   Z55        3.02379   0.00012   0.00000   0.01078   0.00982   3.03361
   X56        5.13696   0.00040   0.00000   0.04411   0.04439   5.18135
   Y56        3.77450  -0.00012   0.00000  -0.02116  -0.01896   3.75554
   Z56        4.57726   0.00015   0.00000   0.02328   0.02211   4.59936
   X57        7.91107   0.00016   0.00000   0.02746   0.02774   7.93882
   Y57        2.16383  -0.00028   0.00000  -0.03213  -0.03010   2.13373
   Z57        3.69857  -0.00014   0.00000  -0.00893  -0.00978   3.68879
   X58       -0.58823  -0.00039   0.00000  -0.05741  -0.05716  -0.64539
   Y58        5.20797   0.00011   0.00000   0.04050   0.04226   5.25024
   Z58        2.76372   0.00006   0.00000  -0.00061  -0.00206   2.76166
   X59       -2.02337  -0.00056   0.00000  -0.08015  -0.07989  -2.10326
   Y59        5.87319  -0.00010   0.00000   0.00469   0.00673   5.87992
   Z59        4.11957  -0.00005   0.00000  -0.00734  -0.00892   4.11065
   X60        0.93281  -0.00069   0.00000  -0.08709  -0.08685   0.84595
   Y60        6.62581   0.00060   0.00000   0.07233   0.07410   6.69992
   Z60        2.76405   0.00011   0.00000   0.01514   0.01337   2.77741
   X61       -3.28663  -0.00007   0.00000  -0.01424  -0.01391  -3.30054
   Y61       -0.70646  -0.00009   0.00000  -0.01834  -0.01564  -0.72210
   Z61        7.22134   0.00011   0.00000   0.01024   0.01008   7.23143
   X62       -1.81648  -0.00021   0.00000  -0.02407  -0.02375  -1.84023
   Y62        0.74357  -0.00002   0.00000  -0.00824  -0.00554   0.73803
   Z62        7.19850   0.00017   0.00000   0.02278   0.02230   7.22080
   X63       -5.15600  -0.00017   0.00000  -0.01962  -0.01930  -5.17531
   Y63        0.14969  -0.00023   0.00000  -0.03002  -0.02737   0.12231
   Z63        7.05159   0.00008   0.00000   0.00996   0.00964   7.06122
   X64       -3.15966  -0.00009   0.00000  -0.01168  -0.01133  -3.17099
   Y64       -1.86382  -0.00020   0.00000  -0.02728  -0.02422  -1.88804
   Z64        8.92223   0.00004   0.00000   0.00401   0.00410   8.92633
   X65        6.24530   0.00008   0.00000   0.00995   0.01019   6.25549
   Y65        4.39029  -0.00005   0.00000  -0.00873  -0.00735   4.38294
   Z65        0.66904   0.00010   0.00000   0.01685   0.01553   0.68457
   X66        6.98076   0.00007   0.00000   0.00649   0.00673   6.98749
   Y66        3.25900   0.00001   0.00000   0.00091   0.00196   3.26096
   Z66       -0.90401   0.00005   0.00000   0.00826   0.00718  -0.89683
   X67        4.34433   0.00006   0.00000   0.00539   0.00562   4.34995
   Y67        4.98253  -0.00010   0.00000  -0.01242  -0.01118   4.97134
   Z67        0.09921   0.00021   0.00000   0.02851   0.02708   0.12630
   X68        7.91500  -0.00001   0.00000   0.00187   0.00210   7.91710
   Y68        6.70265  -0.00001   0.00000  -0.00360  -0.00212   6.70053
   Z68        1.08990   0.00014   0.00000   0.02045   0.01863   1.10853
   X69        8.07293  -0.00012   0.00000  -0.01302  -0.01282   8.06011
   Y69        7.83851   0.00007   0.00000   0.00669   0.00780   7.84631
   Z69       -0.62994   0.00018   0.00000   0.02587   0.02380  -0.60614
   X70        7.14417   0.00000   0.00000   0.00359   0.00382   7.14798
   Y70        7.91332  -0.00011   0.00000  -0.01540  -0.01361   7.89971
   Z70        2.58069   0.00021   0.00000   0.03094   0.02887   2.60955
   X71        9.82563   0.00005   0.00000   0.00756   0.00779   9.83342
   Y71        6.14677   0.00006   0.00000   0.00281   0.00443   6.15120
   Z71        1.66090   0.00004   0.00000   0.00746   0.00574   1.66664
   X72        9.23127   0.00006   0.00000   0.00915   0.00946   9.24073
   Y72       -4.71591  -0.00018   0.00000  -0.02834  -0.02727  -4.74318
   Z72       -0.84847  -0.00019   0.00000  -0.02576  -0.02515  -0.87362
   X73       10.35594   0.00010   0.00000   0.01401   0.01433  10.37028
   Y73       -4.63045  -0.00024   0.00000  -0.03605  -0.03460  -4.66505
   Z73        0.87927  -0.00020   0.00000  -0.02853  -0.02795   0.85132
   X74       10.12485   0.00001   0.00000   0.00222   0.00252  10.12737
   Y74       -6.05941  -0.00019   0.00000  -0.02691  -0.02612  -6.08552
   Z74       -2.14310  -0.00022   0.00000  -0.03200  -0.03111  -2.17421
   X75        8.91157   0.00006   0.00000   0.01206   0.01234   8.92391
   Y75       -2.13768  -0.00019   0.00000  -0.02392  -0.02313  -2.16080
   Z75       -2.11974  -0.00011   0.00000  -0.01744  -0.01738  -2.13712
   X76        8.52678   0.00014   0.00000   0.01903   0.01930   8.54608
   Y76       -0.69880  -0.00018   0.00000  -0.02718  -0.02608  -0.72488
   Z76       -0.68735  -0.00008   0.00000  -0.01224  -0.01248  -0.69983
   X77       10.55754   0.00007   0.00000   0.01066   0.01092  10.56846
   Y77       -1.55313  -0.00016   0.00000  -0.02449  -0.02392  -1.57705
   Z77       -3.21830  -0.00015   0.00000  -0.01985  -0.01993  -3.23823
         Item               Value     Threshold  Converged?
 Maximum Force            0.000693     0.000450     NO 
 RMS     Force            0.000158     0.000300     YES
 Maximum Displacement     0.086852     0.001800     NO 
 RMS     Displacement     0.019739     0.001200     NO 
 Predicted change in Energy=-6.580708D-04
 GradGradGradGradGradGradGradGradGradGradGradGradGradGradGradGradGradGrad

 Leave Link  103 at Thu Feb  7 23:21:18 2019, MaxMem=   104857600 cpu:              18.0 elap:               0.8
 (Enter /home/xinyan/g16/l9999.exe)
 1\1\GINC-TSE4\Force\RM062X\6-31G(d)\C27H41N3O5S1\STEVETSE\07-Feb-2019\
 0\\#p M062X/6-31G* em=gd3 force int=ultrafine\\Title\\0,1\C,-4.95112,0
 .23868,-0.30185\C,-5.10085,-1.01914,-1.16293\C,-3.75039,-1.43883,-1.75
 617\C,-2.76023,-1.66911,-0.61878\C,-2.55668,-0.37714,0.2238\C,-3.91439
 ,0.0408,0.80836\H,-3.8499,-2.34324,-2.36737\H,-5.49703,-1.83961,-0.550
 38\H,-5.81879,-0.84873,-1.97205\H,-4.62792,1.07169,-0.94208\H,-5.9203,
 0.51928,0.12415\H,-3.137,-2.45862,0.03756\H,-2.27763,0.40113,-0.5025\H
 ,-4.25394,-0.72233,1.52016\H,-3.76609,0.9755,1.36227\H,-3.39956,-0.627
 97,-2.40928\N,-1.42625,-2.12974,-1.07021\C,-0.7599,-1.46911,-2.04513\C
 ,-0.73084,-2.94924,-0.24666\C,0.58987,-1.58667,-2.21381\H,-1.35509,-0.
 8178,-2.6721\C,0.62089,-3.11375,-0.3498\H,-1.30504,-3.42567,0.54074\C,
 1.35448,-2.35515,-1.29261\H,1.0652,-1.03595,-3.0148\H,1.11012,-3.73763
 ,0.38495\N,2.69467,-2.34869,-1.29732\C,3.44432,-2.91345,-0.16786\H,3.3
 1754,-3.99905,-0.12267\H,3.0718,-2.47061,0.76647\C,3.46579,-1.30457,-1
 .9894\H,3.71164,-1.62903,-3.00786\H,2.88355,-0.38011,-2.02794\N,-1.433
 31,-0.45172,1.13325\S,-1.46391,-1.41111,2.38794\O,-2.54534,-2.4206,2.3
 5003\O,-0.10384,-1.97536,2.60626\C,-0.93534,2.6862,0.08494\C,-0.30202,
 1.99084,-0.95193\C,-0.87647,1.96317,-2.22074\C,-2.10133,2.58714,-2.461
 72\C,-2.74961,3.24938,-1.42202\C,-2.16304,3.29923,-0.15942\H,0.61483,1
 .44042,-0.74695\H,-0.36618,1.44608,-3.03038\H,-2.54863,2.55774,-3.4508
 9\H,-3.71066,3.72655,-1.58973\H,-2.6682,3.81246,0.6557\O,0.26002,1.544
 84,1.86295\H,-0.33345,0.8052,1.52967\C,2.36661,0.21005,1.36922\O,2.005
 49,-0.16236,0.26646\O,2.12758,-0.46094,2.48545\H,1.3708,-1.09609,2.356
 93\C,3.19355,1.45323,1.60012\H,2.71836,1.99738,2.42218\H,4.18636,1.145
 05,1.9572\C,-0.31128,2.75594,1.4625\H,-1.07072,3.10796,2.17998\H,0.493
 62,3.50623,1.46267\C,-1.73921,-0.37384,3.82137\H,-0.96124,0.39348,3.80
 928\H,-2.72844,0.07921,3.73154\H,-1.67202,-0.98629,4.72144\C,3.30487,2
 .32324,0.35404\H,3.69406,1.72459,-0.47838\H,2.29892,2.63664,0.0525\C,4
 .18844,3.54689,0.57675\H,4.27201,4.14796,-0.33335\H,3.78053,4.18755,1.
 36564\H,5.1995,3.25273,0.87891\C,4.88498,-2.49555,-0.44899\H,5.48013,-
 2.45033,0.46529\H,5.35784,-3.2065,-1.13408\C,4.7158,-1.13121,-1.12172\
 H,4.51218,-0.36979,-0.36373\H,5.58681,-0.82188,-1.70305\\Version=ES64L
 -G16RevA.03\State=1-A\HF=-1991.3873815\RMSD=5.401e-09\RMSF=1.579e-04\D
 ipole=0.6120521,-0.0611181,-2.6012738\Quadrupole=10.5653281,-5.4058818
 ,-5.1594463,-9.7944493,-0.0076514,9.320854\PG=C01 [X(C27H41N3O5S1)]\\@


 PENOTUS DIED A HUNDRED YEARS OLD WANTING BUT TWO...
 AND HE USED TO SAY BEFORE HE DIED, HAVING SPENT HIS
 WHOLE LIFE IN VAINLY SEARCHING AFTER THE PHILOSOPHER'S
 STONE, THAT IF HE HAD A MORTAL ENEMY HE DID NOT DARE
 TO ENCOUNTER OPENLY, HE WOULD ADVISE HIM ABOVE ALL
 THINGS TO GIVE HIMSELF UP TO THE STUDY AND PRACTICE
 OF ALCHEMY.  --  NICOLAS LEMERY, M.D.
 "A COURSE OF CHYMISTRY", WALTER KETTILBY, LONDON, 1686
 Job cpu time:       0 days  1 hours 16 minutes  9.0 seconds.
 Elapsed time:       0 days  0 hours  3 minutes 12.2 seconds.
 File lengths (MBytes):  RWF=    216 Int=      0 D2E=      0 Chk=     25 Scr=      1
 Normal termination of Gaussian 16 at Thu Feb  7 23:21:18 2019.
