 Entering Gaussian System, Link 0=g16
 Input=C27N3H41SO5-131.gjf
 Output=C27N3H41SO5-131.log
 Initial command:
 /home/xinyan/g16/l1.exe "/local/home/tmp/Gau-20450.inp" -scrdir="/local/home/tmp/"
 Entering Link 1 = /home/xinyan/g16/l1.exe PID=     20451.
  
 Copyright (c) 1988,1990,1992,1993,1995,1998,2003,2009,2016,
            Gaussian, Inc.  All Rights Reserved.
  
 This is part of the Gaussian(R) 16 program.  It is based on
 the Gaussian(R) 09 system (copyright 2009, Gaussian, Inc.),
 the Gaussian(R) 03 system (copyright 2003, Gaussian, Inc.),
 the Gaussian(R) 98 system (copyright 1998, Gaussian, Inc.),
 the Gaussian(R) 94 system (copyright 1995, Gaussian, Inc.),
 the Gaussian 92(TM) system (copyright 1992, Gaussian, Inc.),
 the Gaussian 90(TM) system (copyright 1990, Gaussian, Inc.),
 the Gaussian 88(TM) system (copyright 1988, Gaussian, Inc.),
 the Gaussian 86(TM) system (copyright 1986, Carnegie Mellon
 University), and the Gaussian 82(TM) system (copyright 1983,
 Carnegie Mellon University). Gaussian is a federally registered
 trademark of Gaussian, Inc.
  
 This software contains proprietary and confidential information,
 including trade secrets, belonging to Gaussian, Inc.
  
 This software is provided under written license and may be
 used, copied, transmitted, or stored only in accord with that
 written license.
  
 The following legend is applicable only to US Government
 contracts under FAR:
  
                    RESTRICTED RIGHTS LEGEND
  
 Use, reproduction and disclosure by the US Government is
 subject to restrictions as set forth in subparagraphs (a)
 and (c) of the Commercial Computer Software - Restricted
 Rights clause in FAR 52.227-19.
  
 Gaussian, Inc.
 340 Quinnipiac St., Bldg. 40, Wallingford CT 06492
  
  
 ---------------------------------------------------------------
 Warning -- This program may not be used in any manner that
 competes with the business of Gaussian, Inc. or will provide
 assistance to any competitor of Gaussian, Inc.  The licensee
 of this program is prohibited from giving any competitor of
 Gaussian, Inc. access to this program.  By using this program,
 the user acknowledges that Gaussian, Inc. is engaged in the
 business of creating and licensing software in the field of
 computational chemistry and represents and warrants to the
 licensee that it is not a competitor of Gaussian, Inc. and that
 it will not use this program in any manner prohibited above.
 ---------------------------------------------------------------
  

 Cite this work as:
 Gaussian 16, Revision A.03,
 M. J. Frisch, G. W. Trucks, H. B. Schlegel, G. E. Scuseria, 
 M. A. Robb, J. R. Cheeseman, G. Scalmani, V. Barone, 
 G. A. Petersson, H. Nakatsuji, X. Li, M. Caricato, A. V. Marenich, 
 J. Bloino, B. G. Janesko, R. Gomperts, B. Mennucci, H. P. Hratchian, 
 J. V. Ortiz, A. F. Izmaylov, J. L. Sonnenberg, D. Williams-Young, 
 F. Ding, F. Lipparini, F. Egidi, J. Goings, B. Peng, A. Petrone, 
 T. Henderson, D. Ranasinghe, V. G. Zakrzewski, J. Gao, N. Rega, 
 G. Zheng, W. Liang, M. Hada, M. Ehara, K. Toyota, R. Fukuda, 
 J. Hasegawa, M. Ishida, T. Nakajima, Y. Honda, O. Kitao, H. Nakai, 
 T. Vreven, K. Throssell, J. A. Montgomery, Jr., J. E. Peralta, 
 F. Ogliaro, M. J. Bearpark, J. J. Heyd, E. N. Brothers, K. N. Kudin, 
 V. N. Staroverov, T. A. Keith, R. Kobayashi, J. Normand, 
 K. Raghavachari, A. P. Rendell, J. C. Burant, S. S. Iyengar, 
 J. Tomasi, M. Cossi, J. M. Millam, M. Klene, C. Adamo, R. Cammi, 
 J. W. Ochterski, R. L. Martin, K. Morokuma, O. Farkas, 
 J. B. Foresman, and D. J. Fox, Gaussian, Inc., Wallingford CT, 2016.
 
 ******************************************
 Gaussian 16:  ES64L-G16RevA.03 25-Dec-2016
                 7-Feb-2019 
 ******************************************
 %nproc=24
 Will use up to   24 processors via shared memory.
 ------------------------------------------
 #p M062X/6-31G* em=gd3 force int=ultrafine
 ------------------------------------------
 1/10=7,30=1,38=1/1,3;
 2/12=2,17=6,18=5,40=1/2;
 3/5=1,6=6,7=1,11=2,25=1,30=1,71=1,74=-55,75=-5,124=31/1,2,3;
 4//1;
 5/5=2,38=5/2;
 6/7=2,8=2,9=2,10=2,28=1/1;
 7/29=1/1,2,3,16;
 1/10=7,30=1/3;
 99//99;
 Leave Link    1 at Thu Feb  7 15:46:56 2019, MaxMem=           0 cpu:               2.5 elap:               0.1
 (Enter /home/xinyan/g16/l101.exe)
 -----
 Title
 -----
 Symbolic Z-matrix:
 Charge =  0 Multiplicity = 1
 C                    -4.89645   0.23738  -0.44739 
 C                    -5.07246  -1.02738  -1.29319 
 C                    -3.73437  -1.47116  -1.89731 
 C                    -2.74585  -1.71724  -0.76356 
 C                    -2.52266  -0.4258    0.06586 
 C                    -3.85644   0.04039   0.66017 
 H                    -3.85013  -2.37626  -2.50313 
 H                    -5.47194  -1.83696  -0.66834 
 H                    -5.79797  -0.85384  -2.0941 
 H                    -4.57387   1.06057  -1.09813 
 H                    -5.85523   0.53138  -0.00799 
 H                    -3.14229  -2.49231  -0.10048 
 H                    -2.18787   0.34891  -0.63584 
 H                    -4.21561  -0.69962   1.38324 
 H                    -3.68219   0.98189   1.19185 
 H                    -3.37021  -0.66993  -2.55458 
 N                    -1.41667  -2.19652  -1.19639 
 C                    -0.71103  -1.49977  -2.12635 
 C                    -0.73913  -3.00704  -0.33967 
 C                     0.64664  -1.5537   -2.19833 
 H                    -1.28982  -0.86761  -2.78849 
 C                     0.61823  -3.0941   -0.33401 
 H                    -1.34567  -3.52711   0.3939 
 C                     1.37886  -2.26437  -1.20046 
 H                     1.15282  -0.97381  -2.95803 
 H                     1.08755  -3.6998    0.42813 
 N                     2.69828  -2.15976  -1.08712 
 C                     3.40065  -2.61901   0.12145 
 H                     3.28272  -3.69842   0.25016 
 H                     2.98126  -2.08116   0.98465 
 C                     3.4426   -1.08841  -1.76204 
 H                     3.70731  -1.3996   -2.78002 
 H                     2.81612  -0.19297  -1.79751 
 N                    -1.42392  -0.55152   1.0103 
 S                    -1.51175  -1.43539   2.37634 
 O                    -2.71206  -2.27538   2.30971 
 O                    -0.22509  -2.10526   2.58515 
 C                    -0.72688   2.47853   0.2849 
 C                    -0.2374    2.03287  -0.95298 
 C                    -1.00574   2.15982  -2.10854 
 C                    -2.27994   2.72622  -2.06169 
 C                    -2.77979   3.16646  -0.83946 
 C                    -2.00495   3.04372   0.31432 
 H                     0.72415   1.53327  -0.98225 
 H                    -0.59926   1.81985  -3.05889 
 H                    -2.87254   2.82898  -2.96662 
 H                    -3.7695    3.61118  -0.78196 
 H                    -2.40278   3.40256   1.2616 
 O                     0.54455   1.28216   2.12849 
 H                    -0.43139  -0.30194   0.7241 
 C                     1.68484   0.56179   1.48596 
 O                     1.29098  -0.01523   0.36839 
 O                     2.05072  -0.35027   2.50551 
 H                     1.34998  -1.02722   2.50466 
 C                     2.89845   1.52563   1.40179 
 H                     2.85146   2.2231    2.24789 
 H                     3.7829    0.9033    1.5856 
 C                     0.09762   2.48909   1.57559 
 H                    -0.53763   2.9421    2.34773 
 H                     0.9408    3.18134   1.43467 
 C                    -1.69767  -0.257     3.69425 
 H                    -0.8287    0.40412   3.63328 
 H                    -2.62874   0.28919   3.53317 
 H                    -1.72775  -0.81079   4.63405 
 C                     3.10117   2.28472   0.09365 
 H                     3.07416   1.57206  -0.73957 
 H                     2.27955   2.98591  -0.09451 
 C                     4.42307   3.05121   0.08423 
 H                     4.57314   3.59249  -0.85504 
 H                     4.45424   3.78072   0.89968 
 H                     5.2711    2.37185   0.22263 
 C                     4.84428  -2.21011  -0.14919 
 H                     5.42126  -2.12142   0.7731 
 H                     5.33168  -2.94711  -0.79684 
 C                     4.67494  -0.87458  -0.87781 
 H                     4.45039  -0.09264  -0.14817 
 H                     5.55289  -0.57527  -1.45415 
 
 ITRead=  0  0  0  0  0  0  0  0  0  0  0  0  0  0  0  0  0  0  0  0
 ITRead=  0  0  0  0  0  0  0  0  0  0  0  0  0  0  0  0  0  0  0  0
 ITRead=  0  0  0  0  0  0  0  0  0  0  0  0  0  0  0  0  0  0  0  0
 ITRead=  0  0  0  0  0  0  0  0  0  0  0  0  0  0  0  0  0
 MicOpt= -1 -1 -1 -1 -1 -1 -1 -1 -1 -1 -1 -1 -1 -1 -1 -1 -1 -1 -1 -1
 MicOpt= -1 -1 -1 -1 -1 -1 -1 -1 -1 -1 -1 -1 -1 -1 -1 -1 -1 -1 -1 -1
 MicOpt= -1 -1 -1 -1 -1 -1 -1 -1 -1 -1 -1 -1 -1 -1 -1 -1 -1 -1 -1 -1
 MicOpt= -1 -1 -1 -1 -1 -1 -1 -1 -1 -1 -1 -1 -1 -1 -1 -1 -1
 NAtoms=     77 NQM=       77 NQMF=       0 NMMI=      0 NMMIF=      0
                NMic=       0 NMicF=      0.
                    Isotopes and Nuclear Properties:
 (Nuclear quadrupole moments (NQMom) in fm**2, nuclear magnetic moments (NMagM)
  in nuclear magnetons)

  Atom         1           2           3           4           5           6           7           8           9          10
 IAtWgt=          12          12          12          12          12          12           1           1           1           1
 AtmWgt=  12.0000000  12.0000000  12.0000000  12.0000000  12.0000000  12.0000000   1.0078250   1.0078250   1.0078250   1.0078250
 NucSpn=           0           0           0           0           0           0           1           1           1           1
 AtZEff=  -0.0000000  -0.0000000  -0.0000000  -0.0000000  -0.0000000  -0.0000000  -0.0000000  -0.0000000  -0.0000000  -0.0000000
 NQMom=    0.0000000   0.0000000   0.0000000   0.0000000   0.0000000   0.0000000   0.0000000   0.0000000   0.0000000   0.0000000
 NMagM=    0.0000000   0.0000000   0.0000000   0.0000000   0.0000000   0.0000000   2.7928460   2.7928460   2.7928460   2.7928460
 AtZNuc=   6.0000000   6.0000000   6.0000000   6.0000000   6.0000000   6.0000000   1.0000000   1.0000000   1.0000000   1.0000000

  Atom        11          12          13          14          15          16          17          18          19          20
 IAtWgt=           1           1           1           1           1           1          14          12          12          12
 AtmWgt=   1.0078250   1.0078250   1.0078250   1.0078250   1.0078250   1.0078250  14.0030740  12.0000000  12.0000000  12.0000000
 NucSpn=           1           1           1           1           1           1           2           0           0           0
 AtZEff=  -0.0000000  -0.0000000  -0.0000000  -0.0000000  -0.0000000  -0.0000000  -0.0000000  -0.0000000  -0.0000000  -0.0000000
 NQMom=    0.0000000   0.0000000   0.0000000   0.0000000   0.0000000   0.0000000   2.0440000   0.0000000   0.0000000   0.0000000
 NMagM=    2.7928460   2.7928460   2.7928460   2.7928460   2.7928460   2.7928460   0.4037610   0.0000000   0.0000000   0.0000000
 AtZNuc=   1.0000000   1.0000000   1.0000000   1.0000000   1.0000000   1.0000000   7.0000000   6.0000000   6.0000000   6.0000000

  Atom        21          22          23          24          25          26          27          28          29          30
 IAtWgt=           1          12           1          12           1           1          14          12           1           1
 AtmWgt=   1.0078250  12.0000000   1.0078250  12.0000000   1.0078250   1.0078250  14.0030740  12.0000000   1.0078250   1.0078250
 NucSpn=           1           0           1           0           1           1           2           0           1           1
 AtZEff=  -0.0000000  -0.0000000  -0.0000000  -0.0000000  -0.0000000  -0.0000000  -0.0000000  -0.0000000  -0.0000000  -0.0000000
 NQMom=    0.0000000   0.0000000   0.0000000   0.0000000   0.0000000   0.0000000   2.0440000   0.0000000   0.0000000   0.0000000
 NMagM=    2.7928460   0.0000000   2.7928460   0.0000000   2.7928460   2.7928460   0.4037610   0.0000000   2.7928460   2.7928460
 AtZNuc=   1.0000000   6.0000000   1.0000000   6.0000000   1.0000000   1.0000000   7.0000000   6.0000000   1.0000000   1.0000000

  Atom        31          32          33          34          35          36          37          38          39          40
 IAtWgt=          12           1           1          14          32          16          16          12          12          12
 AtmWgt=  12.0000000   1.0078250   1.0078250  14.0030740  31.9720718  15.9949146  15.9949146  12.0000000  12.0000000  12.0000000
 NucSpn=           0           1           1           2           0           0           0           0           0           0
 AtZEff=  -0.0000000  -0.0000000  -0.0000000  -0.0000000  -0.0000000  -0.0000000  -0.0000000  -0.0000000  -0.0000000  -0.0000000
 NQMom=    0.0000000   0.0000000   0.0000000   2.0440000   0.0000000   0.0000000   0.0000000   0.0000000   0.0000000   0.0000000
 NMagM=    0.0000000   2.7928460   2.7928460   0.4037610   0.0000000   0.0000000   0.0000000   0.0000000   0.0000000   0.0000000
 AtZNuc=   6.0000000   1.0000000   1.0000000   7.0000000  16.0000000   8.0000000   8.0000000   6.0000000   6.0000000   6.0000000

  Atom        41          42          43          44          45          46          47          48          49          50
 IAtWgt=          12          12          12           1           1           1           1           1          16           1
 AtmWgt=  12.0000000  12.0000000  12.0000000   1.0078250   1.0078250   1.0078250   1.0078250   1.0078250  15.9949146   1.0078250
 NucSpn=           0           0           0           1           1           1           1           1           0           1
 AtZEff=  -0.0000000  -0.0000000  -0.0000000  -0.0000000  -0.0000000  -0.0000000  -0.0000000  -0.0000000  -0.0000000  -0.0000000
 NQMom=    0.0000000   0.0000000   0.0000000   0.0000000   0.0000000   0.0000000   0.0000000   0.0000000   0.0000000   0.0000000
 NMagM=    0.0000000   0.0000000   0.0000000   2.7928460   2.7928460   2.7928460   2.7928460   2.7928460   0.0000000   2.7928460
 AtZNuc=   6.0000000   6.0000000   6.0000000   1.0000000   1.0000000   1.0000000   1.0000000   1.0000000   8.0000000   1.0000000

  Atom        51          52          53          54          55          56          57          58          59          60
 IAtWgt=          12          16          16           1          12           1           1          12           1           1
 AtmWgt=  12.0000000  15.9949146  15.9949146   1.0078250  12.0000000   1.0078250   1.0078250  12.0000000   1.0078250   1.0078250
 NucSpn=           0           0           0           1           0           1           1           0           1           1
 AtZEff=  -0.0000000  -0.0000000  -0.0000000  -0.0000000  -0.0000000  -0.0000000  -0.0000000  -0.0000000  -0.0000000  -0.0000000
 NQMom=    0.0000000   0.0000000   0.0000000   0.0000000   0.0000000   0.0000000   0.0000000   0.0000000   0.0000000   0.0000000
 NMagM=    0.0000000   0.0000000   0.0000000   2.7928460   0.0000000   2.7928460   2.7928460   0.0000000   2.7928460   2.7928460
 AtZNuc=   6.0000000   8.0000000   8.0000000   1.0000000   6.0000000   1.0000000   1.0000000   6.0000000   1.0000000   1.0000000

  Atom        61          62          63          64          65          66          67          68          69          70
 IAtWgt=          12           1           1           1          12           1           1          12           1           1
 AtmWgt=  12.0000000   1.0078250   1.0078250   1.0078250  12.0000000   1.0078250   1.0078250  12.0000000   1.0078250   1.0078250
 NucSpn=           0           1           1           1           0           1           1           0           1           1
 AtZEff=  -0.0000000  -0.0000000  -0.0000000  -0.0000000  -0.0000000  -0.0000000  -0.0000000  -0.0000000  -0.0000000  -0.0000000
 NQMom=    0.0000000   0.0000000   0.0000000   0.0000000   0.0000000   0.0000000   0.0000000   0.0000000   0.0000000   0.0000000
 NMagM=    0.0000000   2.7928460   2.7928460   2.7928460   0.0000000   2.7928460   2.7928460   0.0000000   2.7928460   2.7928460
 AtZNuc=   6.0000000   1.0000000   1.0000000   1.0000000   6.0000000   1.0000000   1.0000000   6.0000000   1.0000000   1.0000000

  Atom        71          72          73          74          75          76          77
 IAtWgt=           1          12           1           1          12           1           1
 AtmWgt=   1.0078250  12.0000000   1.0078250   1.0078250  12.0000000   1.0078250   1.0078250
 NucSpn=           1           0           1           1           0           1           1
 AtZEff=  -0.0000000  -0.0000000  -0.0000000  -0.0000000  -0.0000000  -0.0000000  -0.0000000
 NQMom=    0.0000000   0.0000000   0.0000000   0.0000000   0.0000000   0.0000000   0.0000000
 NMagM=    2.7928460   0.0000000   2.7928460   2.7928460   0.0000000   2.7928460   2.7928460
 AtZNuc=   1.0000000   6.0000000   1.0000000   1.0000000   6.0000000   1.0000000   1.0000000
 Leave Link  101 at Thu Feb  7 15:46:56 2019, MaxMem=   104857600 cpu:               5.8 elap:               0.3
 (Enter /home/xinyan/g16/l103.exe)

 GradGradGradGradGradGradGradGradGradGradGradGradGradGradGradGradGradGrad
 Berny optimization.
 Initialization pass.
 Trust Radius=3.00D-01 FncErr=1.00D-07 GrdErr=1.00D-07 EigMax=2.50D+02 EigMin=1.00D-04
 Number of steps in this run=      2 maximum allowed number of steps=      2.
 GradGradGradGradGradGradGradGradGradGradGradGradGradGradGradGradGradGrad

 Leave Link  103 at Thu Feb  7 15:46:56 2019, MaxMem=   104857600 cpu:               1.6 elap:               0.1
 (Enter /home/xinyan/g16/l202.exe)
 Stoichiometry    C27H41N3O5S
 Framework group  C1[X(C27H41N3O5S)]
 Deg. of freedom   225
 Full point group                 C1      NOp   1
 Largest Abelian subgroup         C1      NOp   1
 Largest concise Abelian subgroup C1      NOp   1
                         Standard orientation:                         
 ---------------------------------------------------------------------
 Center     Atomic      Atomic             Coordinates (Angstroms)
 Number     Number       Type             X           Y           Z
 ---------------------------------------------------------------------
      1          6           0       -4.781351    0.402308   -0.559094
      2          6           0       -4.959190   -0.883419   -1.372269
      3          6           0       -3.626759   -1.329749   -1.986926
      4          6           0       -2.618524   -1.540655   -0.863494
      5          6           0       -2.394007   -0.228236   -0.068060
      6          6           0       -3.722482    0.240304    0.536199
      7          1           0       -3.743838   -2.249778   -2.569560
      8          1           0       -5.341618   -1.681512   -0.722470
      9          1           0       -5.698620   -0.734960   -2.165454
     10          1           0       -4.476337    1.212738   -1.233876
     11          1           0       -5.735760    0.698295   -0.111587
     12          1           0       -2.997625   -2.303325   -0.176334
     13          1           0       -2.077144    0.532639   -0.792843
     14          1           0       -4.063698   -0.485590    1.281920
     15          1           0       -3.548404    1.195484    1.042950
     16          1           0       -3.280076   -0.541068   -2.668380
     17          7           0       -1.292013   -2.018530   -1.305960
     18          6           0       -0.607221   -1.337764   -2.262950
     19          6           0       -0.593972   -2.802872   -0.441368
     20          6           0        0.749591   -1.381708   -2.355083
     21          1           0       -1.201898   -0.726311   -2.930437
     22          6           0        0.764036   -2.878116   -0.455114
     23          1           0       -1.184324   -3.310772    0.313623
     24          6           0        1.503609   -2.062449   -1.352591
     25          1           0        1.238656   -0.815482   -3.136005
     26          1           0        1.250583   -3.461710    0.313444
     27          7           0        2.823646   -1.943882   -1.262572
     28          6           0        3.548851   -2.368593   -0.054858
     29          1           0        3.442612   -3.445658    0.100848
     30          1           0        3.138167   -1.814253    0.802073
     31          6           0        3.547733   -0.882315   -1.973974
     32          1           0        3.799320   -1.215026   -2.988470
     33          1           0        2.912783    0.006633   -2.020429
     34          7           0       -1.279598   -0.322316    0.861588
     35         16           0       -1.338208   -1.174604    2.249095
     36          8           0       -2.531841   -2.026203    2.221044
     37          8           0       -0.042504   -1.828316    2.453133
     38          6           0       -0.621109    2.695748    0.054772
     39          6           0       -0.147011    2.225378   -1.179948
     40          6           0       -0.934374    2.318570   -2.325878
     41          6           0       -2.212710    2.874952   -2.272140
     42          6           0       -2.697371    3.339447   -1.052774
     43          6           0       -1.903574    3.250477    0.091176
     44          1           0        0.818401    1.733504   -1.212734
     45          1           0       -0.539728    1.959893   -3.274338
     46          1           0       -2.820239    2.951353   -3.169751
     47          1           0       -3.690007    3.776879   -0.990044
     48          1           0       -2.289789    3.628021    1.035990
     49          8           0        0.689563    1.553938    1.905466
     50          1           0       -0.293924   -0.071008    0.554005
     51          6           0        1.826104    0.828504    1.261992
     52          8           0        1.420056    0.222054    0.164548
     53          8           0        2.215983   -0.056201    2.296639
     54          1           0        1.521404   -0.738976    2.322650
     55          6           0        3.029576    1.800489    1.136202
     56          1           0        2.989536    2.517195    1.966435
     57          1           0        3.922321    1.190262    1.320493
     58          6           0        0.223280    2.743677    1.331683
     59          1           0       -0.403889    3.209212    2.102979
     60          1           0        1.057929    3.439643    1.161353
     61          6           0       -1.514109    0.032752    3.541924
     62          1           0       -0.652149    0.699696    3.451831
     63          1           0       -2.452430    0.566996    3.382867
     64          1           0       -1.524577   -0.499067    4.494747
     65          6           0        3.205077    2.530382   -0.192330
     66          1           0        3.171466    1.798157   -1.008166
     67          1           0        2.374379    3.219881   -0.383801
     68          6           0        4.519754    3.307762   -0.240505
     69          1           0        4.650313    3.828118   -1.194401
     70          1           0        4.557096    4.056450    0.557108
     71          1           0        5.375887    2.639145   -0.099701
     72          6           0        4.984368   -1.953776   -0.357728
     73          1           0        5.574836   -1.838513    0.553015
     74          1           0        5.468195   -2.701560   -0.995622
     75          6           0        4.791741   -0.637217   -1.114545
     76          1           0        4.571598    0.159674   -0.399893
     77          1           0        5.657886   -0.343988   -1.711504
 ---------------------------------------------------------------------
 Rotational constants (GHZ):           0.1549971           0.1008123           0.0908147
 Leave Link  202 at Thu Feb  7 15:46:56 2019, MaxMem=   104857600 cpu:               2.4 elap:               0.1
 (Enter /home/xinyan/g16/l301.exe)
 Standard basis: 6-31G(d) (6D, 7F)
 Ernie: Thresh=  0.10000D-02 Tol=  0.10000D-05 Strict=F.
 There are   626 symmetry adapted cartesian basis functions of A   symmetry.
 There are   626 symmetry adapted basis functions of A   symmetry.
   626 basis functions,  1196 primitive gaussians,   626 cartesian basis functions
   140 alpha electrons      140 beta electrons
       nuclear repulsion energy      4992.0263599950 Hartrees.
 IExCor= 4336 DFT=T Ex+Corr=M062X ExCW=0 ScaHFX=  0.540000
 ScaDFX=  1.000000  1.000000  1.000000  1.000000 ScalE2=  1.000000  1.000000
 IRadAn=      5 IRanWt=     -1 IRanGd=            0 ICorTp=0 IEmpDi=131
 NAtoms=   77 NActive=   77 NUniq=   77 SFac= 1.00D+00 NAtFMM=   60 NAOKFM=T Big=T
 Integral buffers will be    131072 words long.
 Raffenetti 2 integral format.
 Two-electron integral symmetry is turned on.
 R6Disp:  Grimme-D3 Dispersion energy=       -0.0108398077 Hartrees.
 Nuclear repulsion after empirical dispersion term =     4992.0155201873 Hartrees.
 Leave Link  301 at Thu Feb  7 15:46:57 2019, MaxMem=   104857600 cpu:               3.0 elap:               0.2
 (Enter /home/xinyan/g16/l302.exe)
 NPDir=0 NMtPBC=     1 NCelOv=     1 NCel=       1 NClECP=     1 NCelD=      1
         NCelK=      1 NCelE2=     1 NClLst=     1 CellRange=     0.0.
 One-electron integrals computed using PRISM.
 One-electron integral symmetry used in STVInt
 PrsmSu:  requested number of processors reduced to:  23 ShMem   1 Linda.
 NBasis=   626 RedAO= T EigKep=  4.45D-04  NBF=   626
 NBsUse=   626 1.00D-06 EigRej= -1.00D+00 NBFU=   626
 Precomputing XC quadrature grid using
 IXCGrd= 4 IRadAn=           5 IRanWt=          -1 IRanGd=           0 AccXCQ= 0.00D+00.
 Generated NRdTot=       0 NPtTot=           0 NUsed=           0 NTot=          32
 NSgBfM=   621   621   621   621   621 MxSgAt=    77 MxSgA2=    77.
 Leave Link  302 at Thu Feb  7 15:47:00 2019, MaxMem=   104857600 cpu:              78.5 elap:               3.4
 (Enter /home/xinyan/g16/l303.exe)
 DipDrv:  MaxL=1.
 Leave Link  303 at Thu Feb  7 15:47:00 2019, MaxMem=   104857600 cpu:               6.2 elap:               0.3
 (Enter /home/xinyan/g16/l401.exe)
 ExpMin= 1.17D-01 ExpMax= 2.19D+04 ExpMxC= 3.30D+03 IAcc=3 IRadAn=         5 AccDes= 0.00D+00
 Harris functional with IExCor= 1009 and IRadAn=       5 diagonalized for initial guess.
 HarFok:  IExCor= 1009 AccDes= 0.00D+00 IRadAn=         5 IDoV= 1 UseB2=F ITyADJ=14
 ICtDFT=  3500011 ScaDFX=  1.000000  1.000000  1.000000  1.000000
 FoFCou: FMM=F IPFlag=           0 FMFlag=      100000 FMFlg1=        2001
         NFxFlg=           0 DoJE=T BraDBF=F KetDBF=T FulRan=T
         wScrn=  0.000000 ICntrl=       500 IOpCl=  0 I1Cent=   200000004 NGrid=           0
         NMat0=    1 NMatS0=      1 NMatT0=    0 NMatD0=    1 NMtDS0=    0 NMtDT0=    0
 Petite list used in FoFCou.
 Harris En= -1990.52923100009    
 JPrj=0 DoOrth=F DoCkMO=F.
 Leave Link  401 at Thu Feb  7 15:47:05 2019, MaxMem=   104857600 cpu:              99.8 elap:               4.2
 (Enter /home/xinyan/g16/l502.exe)
 Integral symmetry usage will be decided dynamically.
 Closed shell SCF:
 Using DIIS extrapolation, IDIIS=  1040.
 NGot=   104857600 LenX=   104051656 LenY=   103659154
 Requested convergence on RMS density matrix=1.00D-08 within 128 cycles.
 Requested convergence on MAX density matrix=1.00D-06.
 Requested convergence on             energy=1.00D-06.
 No special actions if energy rises.
 Fock matrices will be formed incrementally for  20 cycles.
 Integral accuracy reduced to 1.0D-05 until final iterations.

 Cycle   1  Pass 0  IDiag  1:
 FoFJK:  IHMeth= 1 ICntrl=       0 DoSepK=F KAlg= 0 I1Cent=           0 FoldK=F
 IRaf= 990000000 NMat=       1 IRICut=       1 DoRegI=T DoRafI=F ISym2E= 0 IDoP0=0 IntGTp=1.
 FoFCou: FMM=T IPFlag=           0 FMFlag=      100000 FMFlg1=        2001
         NFxFlg=           0 DoJE=F BraDBF=F KetDBF=F FulRan=T
         wScrn=  0.000000 ICntrl=         0 IOpCl=  0 I1Cent=           0 NGrid=           0
         NMat0=    1 NMatS0=      1 NMatT0=    0 NMatD0=    1 NMtDS0=    0 NMtDT0=    0
 Symmetry not used in FoFCou.
 FMM levels:  10  Number of levels for PrismC:   9
 E= -1990.30115807158    
 DIIS: error= 2.21D-02 at cycle   1 NSaved=   1.
 NSaved= 1 IEnMin= 1 EnMin= -1990.30115807158     IErMin= 1 ErrMin= 2.21D-02
 ErrMax= 2.21D-02  0.00D+00 EMaxC= 1.00D-01 BMatC= 1.24D+00 BMatP= 1.24D+00
 IDIUse=3 WtCom= 7.79D-01 WtEn= 2.21D-01
 Coeff-Com:  0.100D+01
 Coeff-En:   0.100D+01
 Coeff:      0.100D+01
 Gap=     0.368 Goal=   None    Shift=    0.000
 GapD=    0.368 DampG=1.000 DampE=0.500 DampFc=0.5000 IDamp=-1.
 Damping current iteration by 5.00D-01
 RMSDP=3.43D-03 MaxDP=3.45D-01              OVMax= 1.95D-01

 Cycle   2  Pass 0  IDiag  1:
 RMSU=  1.71D-03    CP:  9.88D-01
 E= -1990.81353468374     Delta-E=       -0.512376612161 Rises=F Damp=T
 DIIS: error= 7.33D-03 at cycle   2 NSaved=   2.
 NSaved= 2 IEnMin= 2 EnMin= -1990.81353468374     IErMin= 2 ErrMin= 7.33D-03
 ErrMax= 7.33D-03  0.00D+00 EMaxC= 1.00D-01 BMatC= 9.26D-02 BMatP= 1.24D+00
 IDIUse=3 WtCom= 9.27D-01 WtEn= 7.33D-02
 Coeff-Com: -0.292D-01 0.103D+01
 Coeff-En:   0.000D+00 0.100D+01
 Coeff:     -0.271D-01 0.103D+01
 Gap=     0.262 Goal=   None    Shift=    0.000
 RMSDP=8.53D-04 MaxDP=7.80D-02 DE=-5.12D-01 OVMax= 1.17D-01

 Cycle   3  Pass 0  IDiag  1:
 RMSU=  8.43D-04    CP:  9.81D-01  9.47D-01
 E= -1991.31805863788     Delta-E=       -0.504523954137 Rises=F Damp=F
 DIIS: error= 6.29D-03 at cycle   3 NSaved=   3.
 NSaved= 3 IEnMin= 3 EnMin= -1991.31805863788     IErMin= 3 ErrMin= 6.29D-03
 ErrMax= 6.29D-03  0.00D+00 EMaxC= 1.00D-01 BMatC= 4.90D-02 BMatP= 9.26D-02
 IDIUse=3 WtCom= 9.37D-01 WtEn= 6.29D-02
 Coeff-Com: -0.713D-01 0.440D+00 0.632D+00
 Coeff-En:   0.000D+00 0.000D+00 0.100D+01
 Coeff:     -0.668D-01 0.412D+00 0.655D+00
 Gap=     0.248 Goal=   None    Shift=    0.000
 RMSDP=5.08D-04 MaxDP=3.77D-02 DE=-5.05D-01 OVMax= 5.94D-02

 Cycle   4  Pass 0  IDiag  1:
 RMSU=  3.37D-04    CP:  9.84D-01  1.05D+00  6.05D-01
 E= -1991.34825275515     Delta-E=       -0.030194117267 Rises=F Damp=F
 DIIS: error= 3.88D-03 at cycle   4 NSaved=   4.
 NSaved= 4 IEnMin= 4 EnMin= -1991.34825275515     IErMin= 4 ErrMin= 3.88D-03
 ErrMax= 3.88D-03  0.00D+00 EMaxC= 1.00D-01 BMatC= 1.18D-02 BMatP= 4.90D-02
 IDIUse=3 WtCom= 9.61D-01 WtEn= 3.88D-02
 Coeff-Com: -0.286D-01 0.919D-01 0.358D+00 0.579D+00
 Coeff-En:   0.000D+00 0.000D+00 0.204D+00 0.796D+00
 Coeff:     -0.275D-01 0.883D-01 0.352D+00 0.588D+00
 Gap=     0.229 Goal=   None    Shift=    0.000
 RMSDP=2.04D-04 MaxDP=1.46D-02 DE=-3.02D-02 OVMax= 2.77D-02

 Cycle   5  Pass 0  IDiag  1:
 RMSU=  8.59D-05    CP:  9.83D-01  1.04D+00  7.33D-01  5.62D-01
 E= -1991.35809402926     Delta-E=       -0.009841274116 Rises=F Damp=F
 DIIS: error= 9.98D-04 at cycle   5 NSaved=   5.
 NSaved= 5 IEnMin= 5 EnMin= -1991.35809402926     IErMin= 5 ErrMin= 9.98D-04
 ErrMax= 9.98D-04  0.00D+00 EMaxC= 1.00D-01 BMatC= 5.78D-04 BMatP= 1.18D-02
 IDIUse=3 WtCom= 9.90D-01 WtEn= 9.98D-03
 Coeff-Com: -0.940D-02 0.216D-01 0.133D+00 0.285D+00 0.569D+00
 Coeff-En:   0.000D+00 0.000D+00 0.000D+00 0.000D+00 0.100D+01
 Coeff:     -0.930D-02 0.213D-01 0.132D+00 0.282D+00 0.574D+00
 Gap=     0.230 Goal=   None    Shift=    0.000
 RMSDP=5.06D-05 MaxDP=3.68D-03 DE=-9.84D-03 OVMax= 8.71D-03

 Cycle   6  Pass 0  IDiag  1:
 RMSU=  2.70D-05    CP:  9.83D-01  1.04D+00  7.32D-01  6.35D-01  5.93D-01
 E= -1991.35859670676     Delta-E=       -0.000502677501 Rises=F Damp=F
 DIIS: error= 3.26D-04 at cycle   6 NSaved=   6.
 NSaved= 6 IEnMin= 6 EnMin= -1991.35859670676     IErMin= 6 ErrMin= 3.26D-04
 ErrMax= 3.26D-04  0.00D+00 EMaxC= 1.00D-01 BMatC= 5.73D-05 BMatP= 5.78D-04
 IDIUse=3 WtCom= 9.97D-01 WtEn= 3.26D-03
 Coeff-Com: -0.185D-02 0.198D-02 0.301D-01 0.828D-01 0.293D+00 0.594D+00
 Coeff-En:   0.000D+00 0.000D+00 0.000D+00 0.000D+00 0.000D+00 0.100D+01
 Coeff:     -0.184D-02 0.197D-02 0.300D-01 0.825D-01 0.292D+00 0.595D+00
 Gap=     0.230 Goal=   None    Shift=    0.000
 RMSDP=1.49D-05 MaxDP=8.84D-04 DE=-5.03D-04 OVMax= 2.36D-03

 Cycle   7  Pass 0  IDiag  1:
 RMSU=  9.34D-06    CP:  9.83D-01  1.04D+00  7.34D-01  6.35D-01  6.77D-01
                    CP:  6.76D-01
 E= -1991.35865073177     Delta-E=       -0.000054025007 Rises=F Damp=F
 DIIS: error= 5.21D-05 at cycle   7 NSaved=   7.
 NSaved= 7 IEnMin= 7 EnMin= -1991.35865073177     IErMin= 7 ErrMin= 5.21D-05
 ErrMax= 5.21D-05  0.00D+00 EMaxC= 1.00D-01 BMatC= 3.89D-06 BMatP= 5.73D-05
 IDIUse=1 WtCom= 1.00D+00 WtEn= 0.00D+00
 Coeff-Com:  0.164D-03-0.132D-02-0.125D-02 0.616D-02 0.719D-01 0.257D+00
 Coeff-Com:  0.667D+00
 Coeff:      0.164D-03-0.132D-02-0.125D-02 0.616D-02 0.719D-01 0.257D+00
 Coeff:      0.667D+00
 Gap=     0.230 Goal=   None    Shift=    0.000
 RMSDP=4.45D-06 MaxDP=2.41D-04 DE=-5.40D-05 OVMax= 5.13D-04

 Initial convergence to 1.0D-05 achieved.  Increase integral accuracy.
 Cycle   8  Pass 1  IDiag  1:
 E= -1991.35874877278     Delta-E=       -0.000098041010 Rises=F Damp=F
 DIIS: error= 2.24D-04 at cycle   1 NSaved=   1.
 NSaved= 1 IEnMin= 1 EnMin= -1991.35874877278     IErMin= 1 ErrMin= 2.24D-04
 ErrMax= 2.24D-04  0.00D+00 EMaxC= 1.00D-01 BMatC= 1.35D-05 BMatP= 1.35D-05
 IDIUse=3 WtCom= 9.98D-01 WtEn= 2.24D-03
 Coeff-Com:  0.100D+01
 Coeff-En:   0.100D+01
 Coeff:      0.100D+01
 Gap=     0.230 Goal=   None    Shift=    0.000
 RMSDP=4.45D-06 MaxDP=2.41D-04 DE=-9.80D-05 OVMax= 4.40D-04

 Cycle   9  Pass 1  IDiag  1:
 RMSU=  7.33D-05    CP:  1.00D+00
 E= -1991.35876076955     Delta-E=       -0.000011996766 Rises=F Damp=F
 DIIS: error= 2.12D-05 at cycle   2 NSaved=   2.
 NSaved= 2 IEnMin= 2 EnMin= -1991.35876076955     IErMin= 2 ErrMin= 2.12D-05
 ErrMax= 2.12D-05  0.00D+00 EMaxC= 1.00D-01 BMatC= 7.75D-07 BMatP= 1.35D-05
 IDIUse=1 WtCom= 1.00D+00 WtEn= 0.00D+00
 Coeff-Com:  0.668D-01 0.933D+00
 Coeff:      0.668D-01 0.933D+00
 Gap=     0.230 Goal=   None    Shift=    0.000
 RMSDP=3.84D-06 MaxDP=2.02D-04 DE=-1.20D-05 OVMax= 3.51D-04

 Cycle  10  Pass 1  IDiag  1:
 RMSU=  3.22D-06    CP:  1.00D+00  1.03D+00
 E= -1991.35876041096     Delta-E=        0.000000358590 Rises=F Damp=F
 DIIS: error= 3.53D-05 at cycle   3 NSaved=   3.
 NSaved= 3 IEnMin= 2 EnMin= -1991.35876076955     IErMin= 2 ErrMin= 2.12D-05
 ErrMax= 3.53D-05  0.00D+00 EMaxC= 1.00D-01 BMatC= 1.24D-06 BMatP= 7.75D-07
 IDIUse=1 WtCom= 1.00D+00 WtEn= 0.00D+00
 Coeff-Com: -0.146D-01 0.564D+00 0.451D+00
 Coeff:     -0.146D-01 0.564D+00 0.451D+00
 Gap=     0.230 Goal=   None    Shift=    0.000
 RMSDP=1.82D-06 MaxDP=1.20D-04 DE= 3.59D-07 OVMax= 2.16D-04

 Cycle  11  Pass 1  IDiag  1:
 RMSU=  6.21D-07    CP:  1.00D+00  1.03D+00  4.77D-01
 E= -1991.35876144330     Delta-E=       -0.000001032340 Rises=F Damp=F
 DIIS: error= 3.84D-06 at cycle   4 NSaved=   4.
 NSaved= 4 IEnMin= 4 EnMin= -1991.35876144330     IErMin= 4 ErrMin= 3.84D-06
 ErrMax= 3.84D-06  0.00D+00 EMaxC= 1.00D-01 BMatC= 1.06D-08 BMatP= 7.75D-07
 IDIUse=1 WtCom= 1.00D+00 WtEn= 0.00D+00
 Coeff-Com: -0.797D-02 0.254D+00 0.213D+00 0.540D+00
 Coeff:     -0.797D-02 0.254D+00 0.213D+00 0.540D+00
 Gap=     0.230 Goal=   None    Shift=    0.000
 RMSDP=2.14D-07 MaxDP=1.10D-05 DE=-1.03D-06 OVMax= 3.49D-05

 Cycle  12  Pass 1  IDiag  1:
 RMSU=  1.90D-07    CP:  1.00D+00  1.03D+00  4.95D-01  8.71D-01
 E= -1991.35876145309     Delta-E=       -0.000000009797 Rises=F Damp=F
 DIIS: error= 1.52D-06 at cycle   5 NSaved=   5.
 NSaved= 5 IEnMin= 5 EnMin= -1991.35876145309     IErMin= 5 ErrMin= 1.52D-06
 ErrMax= 1.52D-06  0.00D+00 EMaxC= 1.00D-01 BMatC= 9.74D-10 BMatP= 1.06D-08
 IDIUse=1 WtCom= 1.00D+00 WtEn= 0.00D+00
 Coeff-Com: -0.895D-03 0.141D-01 0.133D-01 0.219D+00 0.754D+00
 Coeff:     -0.895D-03 0.141D-01 0.133D-01 0.219D+00 0.754D+00
 Gap=     0.230 Goal=   None    Shift=    0.000
 RMSDP=8.55D-08 MaxDP=5.04D-06 DE=-9.80D-09 OVMax= 8.58D-06

 Cycle  13  Pass 1  IDiag  1:
 RMSU=  6.51D-08    CP:  1.00D+00  1.03D+00  4.96D-01  9.45D-01  8.55D-01
 E= -1991.35876145396     Delta-E=       -0.000000000866 Rises=F Damp=F
 DIIS: error= 4.88D-07 at cycle   6 NSaved=   6.
 NSaved= 6 IEnMin= 6 EnMin= -1991.35876145396     IErMin= 6 ErrMin= 4.88D-07
 ErrMax= 4.88D-07  0.00D+00 EMaxC= 1.00D-01 BMatC= 2.44D-10 BMatP= 9.74D-10
 IDIUse=1 WtCom= 1.00D+00 WtEn= 0.00D+00
 Coeff-Com:  0.774D-03-0.325D-01-0.271D-01 0.426D-01 0.414D+00 0.602D+00
 Coeff:      0.774D-03-0.325D-01-0.271D-01 0.426D-01 0.414D+00 0.602D+00
 Gap=     0.230 Goal=   None    Shift=    0.000
 RMSDP=3.52D-08 MaxDP=1.68D-06 DE=-8.66D-10 OVMax= 5.66D-06

 Cycle  14  Pass 1  IDiag  1:
 RMSU=  2.51D-08    CP:  1.00D+00  1.03D+00  4.97D-01  9.65D-01  9.37D-01
                    CP:  7.86D-01
 E= -1991.35876145426     Delta-E=       -0.000000000303 Rises=F Damp=F
 DIIS: error= 1.62D-07 at cycle   7 NSaved=   7.
 NSaved= 7 IEnMin= 7 EnMin= -1991.35876145426     IErMin= 7 ErrMin= 1.62D-07
 ErrMax= 1.62D-07  0.00D+00 EMaxC= 1.00D-01 BMatC= 1.66D-11 BMatP= 2.44D-10
 IDIUse=1 WtCom= 1.00D+00 WtEn= 0.00D+00
 Coeff-Com:  0.406D-03-0.149D-01-0.129D-01 0.108D-02 0.105D+00 0.259D+00
 Coeff-Com:  0.662D+00
 Coeff:      0.406D-03-0.149D-01-0.129D-01 0.108D-02 0.105D+00 0.259D+00
 Coeff:      0.662D+00
 Gap=     0.230 Goal=   None    Shift=    0.000
 RMSDP=9.56D-09 MaxDP=4.75D-07 DE=-3.03D-10 OVMax= 1.29D-06

 SCF Done:  E(RM062X) =  -1991.35876145     A.U. after   14 cycles
            NFock= 14  Conv=0.96D-08     -V/T= 2.0076
 KE= 1.976422811613D+03 PE=-1.463638036594D+04 EE= 5.676583272682D+03
 Leave Link  502 at Thu Feb  7 15:49:36 2019, MaxMem=   104857600 cpu:            3620.7 elap:             151.2
 (Enter /home/xinyan/g16/l601.exe)
 Copying SCF densities to generalized density rwf, IOpCl= 0 IROHF=0.

 **********************************************************************

            Population analysis using the SCF density.

 **********************************************************************

 Orbital symmetries:
       Occupied  (A) (A) (A) (A) (A) (A) (A) (A) (A) (A) (A) (A)
                 (A) (A) (A) (A) (A) (A) (A) (A) (A) (A) (A) (A)
                 (A) (A) (A) (A) (A) (A) (A) (A) (A) (A) (A) (A)
                 (A) (A) (A) (A) (A) (A) (A) (A) (A) (A) (A) (A)
                 (A) (A) (A) (A) (A) (A) (A) (A) (A) (A) (A) (A)
                 (A) (A) (A) (A) (A) (A) (A) (A) (A) (A) (A) (A)
                 (A) (A) (A) (A) (A) (A) (A) (A) (A) (A) (A) (A)
                 (A) (A) (A) (A) (A) (A) (A) (A) (A) (A) (A) (A)
                 (A) (A) (A) (A) (A) (A) (A) (A) (A) (A) (A) (A)
                 (A) (A) (A) (A) (A) (A) (A) (A) (A) (A) (A) (A)
                 (A) (A) (A) (A) (A) (A) (A) (A) (A) (A) (A) (A)
                 (A) (A) (A) (A) (A) (A) (A) (A)
       Virtual   (A) (A) (A) (A) (A) (A) (A) (A) (A) (A) (A) (A)
                 (A) (A) (A) (A) (A) (A) (A) (A) (A) (A) (A) (A)
                 (A) (A) (A) (A) (A) (A) (A) (A) (A) (A) (A) (A)
                 (A) (A) (A) (A) (A) (A) (A) (A) (A) (A) (A) (A)
                 (A) (A) (A) (A) (A) (A) (A) (A) (A) (A) (A) (A)
                 (A) (A) (A) (A) (A) (A) (A) (A) (A) (A) (A) (A)
                 (A) (A) (A) (A) (A) (A) (A) (A) (A) (A) (A) (A)
                 (A) (A) (A) (A) (A) (A) (A) (A) (A) (A) (A) (A)
                 (A) (A) (A) (A) (A) (A) (A) (A) (A) (A) (A) (A)
                 (A) (A) (A) (A) (A) (A) (A) (A) (A) (A) (A) (A)
                 (A) (A) (A) (A) (A) (A) (A) (A) (A) (A) (A) (A)
                 (A) (A) (A) (A) (A) (A) (A) (A) (A) (A) (A) (A)
                 (A) (A) (A) (A) (A) (A) (A) (A) (A) (A) (A) (A)
                 (A) (A) (A) (A) (A) (A) (A) (A) (A) (A) (A) (A)
                 (A) (A) (A) (A) (A) (A) (A) (A) (A) (A) (A) (A)
                 (A) (A) (A) (A) (A) (A) (A) (A) (A) (A) (A) (A)
                 (A) (A) (A) (A) (A) (A) (A) (A) (A) (A) (A) (A)
                 (A) (A) (A) (A) (A) (A) (A) (A) (A) (A) (A) (A)
                 (A) (A) (A) (A) (A) (A) (A) (A) (A) (A) (A) (A)
                 (A) (A) (A) (A) (A) (A) (A) (A) (A) (A) (A) (A)
                 (A) (A) (A) (A) (A) (A) (A) (A) (A) (A) (A) (A)
                 (A) (A) (A) (A) (A) (A) (A) (A) (A) (A) (A) (A)
                 (A) (A) (A) (A) (A) (A) (A) (A) (A) (A) (A) (A)
                 (A) (A) (A) (A) (A) (A) (A) (A) (A) (A) (A) (A)
                 (A) (A) (A) (A) (A) (A) (A) (A) (A) (A) (A) (A)
                 (A) (A) (A) (A) (A) (A) (A) (A) (A) (A) (A) (A)
                 (A) (A) (A) (A) (A) (A) (A) (A) (A) (A) (A) (A)
                 (A) (A) (A) (A) (A) (A) (A) (A) (A) (A) (A) (A)
                 (A) (A) (A) (A) (A) (A) (A) (A) (A) (A) (A) (A)
                 (A) (A) (A) (A) (A) (A) (A) (A) (A) (A) (A) (A)
                 (A) (A) (A) (A) (A) (A) (A) (A) (A) (A) (A) (A)
                 (A) (A) (A) (A) (A) (A) (A) (A) (A) (A) (A) (A)
                 (A) (A) (A) (A) (A) (A) (A) (A) (A) (A) (A) (A)
                 (A) (A) (A) (A) (A) (A) (A) (A) (A) (A) (A) (A)
                 (A) (A) (A) (A) (A) (A) (A) (A) (A) (A) (A) (A)
                 (A) (A) (A) (A) (A) (A) (A) (A) (A) (A) (A) (A)
                 (A) (A) (A) (A) (A) (A) (A) (A) (A) (A) (A) (A)
                 (A) (A) (A) (A) (A) (A) (A) (A) (A) (A) (A) (A)
                 (A) (A) (A) (A) (A) (A) (A) (A) (A) (A) (A) (A)
                 (A) (A) (A) (A) (A) (A) (A) (A) (A) (A) (A) (A)
                 (A) (A) (A) (A) (A) (A)
 The electronic state is 1-A.
 Alpha  occ. eigenvalues --  -90.14119 -19.61732 -19.61711 -19.58731 -19.56720
 Alpha  occ. eigenvalues --  -19.51334 -14.85150 -14.80452 -14.75622 -10.63409
 Alpha  occ. eigenvalues --  -10.62780 -10.62295 -10.62146 -10.60695 -10.59288
 Alpha  occ. eigenvalues --  -10.58553 -10.57977 -10.57917 -10.57125 -10.56884
 Alpha  occ. eigenvalues --  -10.56672 -10.55636 -10.55584 -10.55135 -10.54905
 Alpha  occ. eigenvalues --  -10.54818 -10.54756 -10.54701 -10.54552 -10.54379
 Alpha  occ. eigenvalues --  -10.54302 -10.54276 -10.53092 -10.51573 -10.51524
 Alpha  occ. eigenvalues --  -10.49744  -8.45096  -6.37312  -6.37290  -6.37133
 Alpha  occ. eigenvalues --   -1.21946  -1.13618  -1.13502  -1.10200  -1.09349
 Alpha  occ. eigenvalues --   -1.05904  -1.01670  -0.99363  -0.95717  -0.94975
 Alpha  occ. eigenvalues --   -0.93475  -0.90278  -0.88750  -0.85881  -0.85814
 Alpha  occ. eigenvalues --   -0.84814  -0.84684  -0.84269  -0.83045  -0.82656
 Alpha  occ. eigenvalues --   -0.76655  -0.76330  -0.75833  -0.74393  -0.72752
 Alpha  occ. eigenvalues --   -0.71612  -0.68327  -0.68254  -0.67934  -0.67179
 Alpha  occ. eigenvalues --   -0.66758  -0.65215  -0.64867  -0.63521  -0.60572
 Alpha  occ. eigenvalues --   -0.60402  -0.59792  -0.58940  -0.57812  -0.57575
 Alpha  occ. eigenvalues --   -0.57155  -0.56430  -0.55753  -0.55165  -0.54180
 Alpha  occ. eigenvalues --   -0.53510  -0.52644  -0.52425  -0.52394  -0.51900
 Alpha  occ. eigenvalues --   -0.51540  -0.51050  -0.50856  -0.49860  -0.49585
 Alpha  occ. eigenvalues --   -0.49157  -0.48818  -0.48204  -0.48121  -0.48054
 Alpha  occ. eigenvalues --   -0.47648  -0.47447  -0.46900  -0.46456  -0.46098
 Alpha  occ. eigenvalues --   -0.44896  -0.44714  -0.44123  -0.43882  -0.43254
 Alpha  occ. eigenvalues --   -0.42481  -0.42109  -0.41456  -0.41384  -0.41150
 Alpha  occ. eigenvalues --   -0.40890  -0.40463  -0.40001  -0.39833  -0.39386
 Alpha  occ. eigenvalues --   -0.39257  -0.39055  -0.38455  -0.37918  -0.37584
 Alpha  occ. eigenvalues --   -0.37378  -0.36727  -0.36572  -0.35706  -0.34888
 Alpha  occ. eigenvalues --   -0.34373  -0.33926  -0.31696  -0.31044  -0.29756
 Alpha  occ. eigenvalues --   -0.28885  -0.28591  -0.27619  -0.24932  -0.24475
 Alpha virt. eigenvalues --   -0.01490   0.00432   0.03574   0.03780   0.10156
 Alpha virt. eigenvalues --    0.11030   0.11643   0.12150   0.13199   0.13539
 Alpha virt. eigenvalues --    0.14199   0.14649   0.14775   0.15264   0.15600
 Alpha virt. eigenvalues --    0.16051   0.16869   0.16965   0.17228   0.17623
 Alpha virt. eigenvalues --    0.18033   0.18339   0.18527   0.18850   0.18908
 Alpha virt. eigenvalues --    0.19312   0.19676   0.19930   0.20124   0.20311
 Alpha virt. eigenvalues --    0.20641   0.20998   0.21067   0.21618   0.21694
 Alpha virt. eigenvalues --    0.22228   0.22547   0.22892   0.23495   0.23610
 Alpha virt. eigenvalues --    0.23878   0.24209   0.24494   0.24749   0.25037
 Alpha virt. eigenvalues --    0.25268   0.25592   0.26054   0.26420   0.26829
 Alpha virt. eigenvalues --    0.27121   0.27801   0.27869   0.28623   0.29028
 Alpha virt. eigenvalues --    0.29389   0.29682   0.29944   0.30797   0.30921
 Alpha virt. eigenvalues --    0.31389   0.31746   0.32376   0.32789   0.33150
 Alpha virt. eigenvalues --    0.33705   0.34566   0.35171   0.35526   0.35778
 Alpha virt. eigenvalues --    0.36431   0.37256   0.37777   0.38045   0.38872
 Alpha virt. eigenvalues --    0.39884   0.40308   0.40816   0.42836   0.43276
 Alpha virt. eigenvalues --    0.44516   0.44851   0.46900   0.48160   0.48850
 Alpha virt. eigenvalues --    0.49864   0.51246   0.52734   0.53420   0.54962
 Alpha virt. eigenvalues --    0.55167   0.55367   0.55988   0.56517   0.56901
 Alpha virt. eigenvalues --    0.57531   0.58255   0.58528   0.58687   0.59356
 Alpha virt. eigenvalues --    0.59513   0.59961   0.60329   0.60469   0.60563
 Alpha virt. eigenvalues --    0.61218   0.61421   0.62415   0.62658   0.62879
 Alpha virt. eigenvalues --    0.63805   0.64067   0.64659   0.65148   0.65531
 Alpha virt. eigenvalues --    0.66141   0.66762   0.66932   0.67447   0.67881
 Alpha virt. eigenvalues --    0.68461   0.69011   0.69273   0.69925   0.70664
 Alpha virt. eigenvalues --    0.71025   0.71445   0.71713   0.73037   0.73569
 Alpha virt. eigenvalues --    0.73594   0.74151   0.74712   0.74939   0.75711
 Alpha virt. eigenvalues --    0.76698   0.77356   0.77816   0.78615   0.78978
 Alpha virt. eigenvalues --    0.79473   0.79750   0.80227   0.81092   0.81375
 Alpha virt. eigenvalues --    0.81718   0.82078   0.82794   0.83685   0.84443
 Alpha virt. eigenvalues --    0.84925   0.85438   0.85709   0.86238   0.87227
 Alpha virt. eigenvalues --    0.87680   0.88447   0.89037   0.89465   0.89604
 Alpha virt. eigenvalues --    0.89791   0.90172   0.90554   0.90956   0.91249
 Alpha virt. eigenvalues --    0.91761   0.92300   0.92853   0.93038   0.93269
 Alpha virt. eigenvalues --    0.93658   0.94339   0.94818   0.95098   0.95465
 Alpha virt. eigenvalues --    0.95890   0.96117   0.96563   0.96669   0.97095
 Alpha virt. eigenvalues --    0.97316   0.97993   0.98080   0.98412   0.98445
 Alpha virt. eigenvalues --    0.99152   0.99779   0.99789   1.00510   1.00762
 Alpha virt. eigenvalues --    1.01371   1.01905   1.02150   1.02864   1.03041
 Alpha virt. eigenvalues --    1.03165   1.04249   1.04734   1.04826   1.05552
 Alpha virt. eigenvalues --    1.05864   1.07016   1.07713   1.08270   1.08931
 Alpha virt. eigenvalues --    1.10334   1.10656   1.11629   1.11856   1.11941
 Alpha virt. eigenvalues --    1.13295   1.13632   1.14516   1.15140   1.15523
 Alpha virt. eigenvalues --    1.16829   1.17719   1.18296   1.18603   1.18920
 Alpha virt. eigenvalues --    1.19915   1.21099   1.21292   1.21735   1.22086
 Alpha virt. eigenvalues --    1.22918   1.23769   1.24161   1.24369   1.25655
 Alpha virt. eigenvalues --    1.25955   1.28159   1.29329   1.29374   1.30598
 Alpha virt. eigenvalues --    1.31346   1.31644   1.32044   1.32390   1.33679
 Alpha virt. eigenvalues --    1.34197   1.34532   1.35045   1.36156   1.36993
 Alpha virt. eigenvalues --    1.37486   1.38409   1.39307   1.40957   1.41429
 Alpha virt. eigenvalues --    1.41714   1.42182   1.44014   1.44727   1.46066
 Alpha virt. eigenvalues --    1.47414   1.47903   1.48417   1.49177   1.49746
 Alpha virt. eigenvalues --    1.51025   1.51974   1.52481   1.52817   1.54549
 Alpha virt. eigenvalues --    1.54748   1.55094   1.55971   1.57092   1.57220
 Alpha virt. eigenvalues --    1.57458   1.58558   1.60631   1.61072   1.61400
 Alpha virt. eigenvalues --    1.61982   1.62844   1.63844   1.65755   1.67318
 Alpha virt. eigenvalues --    1.69035   1.69676   1.70383   1.72267   1.72842
 Alpha virt. eigenvalues --    1.74387   1.74754   1.75785   1.77256   1.77987
 Alpha virt. eigenvalues --    1.78558   1.79328   1.80412   1.80834   1.81775
 Alpha virt. eigenvalues --    1.84347   1.84651   1.85176   1.85789   1.85962
 Alpha virt. eigenvalues --    1.86320   1.86925   1.87594   1.88018   1.89075
 Alpha virt. eigenvalues --    1.90013   1.90077   1.90470   1.91096   1.91853
 Alpha virt. eigenvalues --    1.92742   1.93889   1.94174   1.94636   1.94706
 Alpha virt. eigenvalues --    1.95430   1.95803   1.96322   1.97019   1.97778
 Alpha virt. eigenvalues --    1.98553   1.99118   1.99184   2.00015   2.00936
 Alpha virt. eigenvalues --    2.01847   2.02273   2.02343   2.02750   2.04013
 Alpha virt. eigenvalues --    2.04393   2.06226   2.06364   2.06933   2.07453
 Alpha virt. eigenvalues --    2.07662   2.08435   2.08844   2.09215   2.09561
 Alpha virt. eigenvalues --    2.09898   2.10626   2.11867   2.11877   2.12850
 Alpha virt. eigenvalues --    2.12929   2.14152   2.14514   2.15225   2.16030
 Alpha virt. eigenvalues --    2.16310   2.16764   2.17244   2.18641   2.19203
 Alpha virt. eigenvalues --    2.20003   2.20414   2.20698   2.21581   2.22367
 Alpha virt. eigenvalues --    2.23170   2.23343   2.23610   2.23740   2.24605
 Alpha virt. eigenvalues --    2.25504   2.26049   2.26496   2.27480   2.28531
 Alpha virt. eigenvalues --    2.28872   2.30285   2.30832   2.30968   2.31946
 Alpha virt. eigenvalues --    2.32394   2.34073   2.34920   2.35220   2.35646
 Alpha virt. eigenvalues --    2.36088   2.37446   2.37781   2.38617   2.38738
 Alpha virt. eigenvalues --    2.39122   2.40305   2.40921   2.41635   2.42783
 Alpha virt. eigenvalues --    2.43313   2.44550   2.45367   2.46018   2.46972
 Alpha virt. eigenvalues --    2.49645   2.50753   2.51819   2.52252   2.53121
 Alpha virt. eigenvalues --    2.54244   2.54625   2.56312   2.57115   2.59967
 Alpha virt. eigenvalues --    2.60908   2.61845   2.62362   2.63081   2.64090
 Alpha virt. eigenvalues --    2.64696   2.64905   2.65805   2.67289   2.68348
 Alpha virt. eigenvalues --    2.68866   2.69650   2.70628   2.71706   2.72781
 Alpha virt. eigenvalues --    2.73689   2.74434   2.76300   2.76759   2.77419
 Alpha virt. eigenvalues --    2.79538   2.80223   2.80776   2.80794   2.81571
 Alpha virt. eigenvalues --    2.83446   2.85507   2.86242   2.87244   2.88376
 Alpha virt. eigenvalues --    2.89154   2.90976   2.92595   2.93928   2.96987
 Alpha virt. eigenvalues --    2.99717   3.00351   3.03153   3.05216   3.10530
 Alpha virt. eigenvalues --    3.14767   3.16332   3.23899   3.41328   3.42862
 Alpha virt. eigenvalues --    3.96934   4.02250   4.04988   4.09517   4.11030
 Alpha virt. eigenvalues --    4.15843   4.17313   4.18149   4.18726   4.19718
 Alpha virt. eigenvalues --    4.21271   4.23307   4.24552   4.26678   4.27441
 Alpha virt. eigenvalues --    4.29813   4.32778   4.33298   4.34808   4.35176
 Alpha virt. eigenvalues --    4.39877   4.40910   4.41907   4.43921   4.47818
 Alpha virt. eigenvalues --    4.50403   4.55838   4.58178   4.59188   4.61765
 Alpha virt. eigenvalues --    4.64064   4.66024   4.73817   4.75510   4.76996
 Alpha virt. eigenvalues --    4.80354
          Condensed to atoms (all electrons):
 Mulliken charges:
               1
     1  C   -0.306190
     2  C   -0.307009
     3  C   -0.309633
     4  C   -0.059756
     5  C    0.057132
     6  C   -0.311808
     7  H    0.173820
     8  H    0.162766
     9  H    0.165327
    10  H    0.151002
    11  H    0.163110
    12  H    0.208705
    13  H    0.172767
    14  H    0.193074
    15  H    0.163541
    16  H    0.154024
    17  N   -0.430980
    18  C    0.068221
    19  C    0.063673
    20  C   -0.203045
    21  H    0.206729
    22  C   -0.208916
    23  H    0.245653
    24  C    0.447265
    25  H    0.191537
    26  H    0.211651
    27  N   -0.527061
    28  C   -0.172634
    29  H    0.169811
    30  H    0.232251
    31  C   -0.154395
    32  H    0.166912
    33  H    0.203218
    34  N   -0.816708
    35  S    1.253861
    36  O   -0.612296
    37  O   -0.607896
    38  C    0.087192
    39  C   -0.181455
    40  C   -0.189362
    41  C   -0.170814
    42  C   -0.163686
    43  C   -0.212195
    44  H    0.207664
    45  H    0.140807
    46  H    0.154806
    47  H    0.158534
    48  H    0.152469
    49  O   -0.549050
    50  H    0.449313
    51  C    0.726377
    52  O   -0.723567
    53  O   -0.718084
    54  H    0.445470
    55  C   -0.338343
    56  H    0.149562
    57  H    0.150402
    58  C   -0.092846
    59  H    0.140744
    60  H    0.147283
    61  C   -0.663037
    62  H    0.272283
    63  H    0.196256
    64  H    0.217421
    65  C   -0.294581
    66  H    0.138914
    67  H    0.146454
    68  C   -0.474412
    69  H    0.149185
    70  H    0.155592
    71  H    0.144283
    72  C   -0.331799
    73  H    0.187463
    74  H    0.163235
    75  C   -0.343589
    76  H    0.196017
    77  H    0.171371
 Sum of Mulliken charges =  -0.00000
 Mulliken charges with hydrogens summed into heavy atoms:
               1
     1  C    0.007923
     2  C    0.021085
     3  C    0.018211
     4  C    0.148950
     5  C    0.229899
     6  C    0.044807
    17  N   -0.430980
    18  C    0.274950
    19  C    0.309326
    20  C   -0.011508
    22  C    0.002734
    24  C    0.447265
    27  N   -0.527061
    28  C    0.229427
    31  C    0.215735
    34  N   -0.367395
    35  S    1.253861
    36  O   -0.612296
    37  O   -0.607896
    38  C    0.087192
    39  C    0.026209
    40  C   -0.048555
    41  C   -0.016009
    42  C   -0.005152
    43  C   -0.059726
    49  O   -0.549050
    51  C    0.726377
    52  O   -0.723567
    53  O   -0.272614
    55  C   -0.038379
    58  C    0.195181
    61  C    0.022923
    65  C   -0.009214
    68  C   -0.025351
    72  C    0.018898
    75  C    0.023800
 Electronic spatial extent (au):  <R**2>=          14328.9011
 Charge=             -0.0000 electrons
 Dipole moment (field-independent basis, Debye):
    X=             -2.3764    Y=             -1.8469    Z=             -6.4198  Tot=              7.0903
 Quadrupole moment (field-independent basis, Debye-Ang):
   XX=           -205.3343   YY=           -223.1480   ZZ=           -219.7586
   XY=            -12.1902   XZ=             -5.3833   YZ=             10.0171
 Traceless Quadrupole moment (field-independent basis, Debye-Ang):
   XX=             10.7460   YY=             -7.0677   ZZ=             -3.6784
   XY=            -12.1902   XZ=             -5.3833   YZ=             10.0171
 Octapole moment (field-independent basis, Debye-Ang**2):
  XXX=             16.3791  YYY=            -50.0028  ZZZ=             10.2933  XYY=             10.8849
  XXY=            -23.2947  XXZ=            -37.6617  XZZ=            -24.7562  YZZ=             12.8262
  YYZ=             17.6101  XYZ=            -19.6817
 Hexadecapole moment (field-independent basis, Debye-Ang**3):
 XXXX=          -9867.8412 YYYY=          -5397.4460 ZZZZ=          -3545.8121 XXXY=           -203.1789
 XXXZ=            -10.2029 YYYX=            -62.8743 YYYZ=             58.1928 ZZZX=           -108.4439
 ZZZY=             -8.5987 XXYY=          -2554.7134 XXZZ=          -2318.7966 YYZZ=          -1590.8808
 XXYZ=             48.2178 YYXZ=             52.7349 ZZXY=            -49.4877
 N-N= 4.992015520187D+03 E-N=-1.463638040478D+04  KE= 1.976422811613D+03
 No NMR shielding tensors so no spin-rotation constants.
 Leave Link  601 at Thu Feb  7 15:49:37 2019, MaxMem=   104857600 cpu:              25.3 elap:               1.2
 (Enter /home/xinyan/g16/l701.exe)
 ... and contract with generalized density number  0.
 Compute integral first derivatives.
 R6Disp: Adding Grimme-D3 dispersion energy 1st derivatives to the gradient.
 Leave Link  701 at Thu Feb  7 15:49:38 2019, MaxMem=   104857600 cpu:              24.0 elap:               1.1
 (Enter /home/xinyan/g16/l702.exe)
 L702 exits ... SP integral derivatives will be done elsewhere.
 Leave Link  702 at Thu Feb  7 15:49:38 2019, MaxMem=   104857600 cpu:               1.4 elap:               0.1
 (Enter /home/xinyan/g16/l703.exe)
 Integral derivatives from FoFJK, PRISM(SPDF).
 Compute integral first derivatives, UseDBF=F ICtDFT=           0.
 Calling FoFJK, ICntrl=      2127 FMM=T ISym2X=0 I1Cent= 0 IOpClX= 0 NMat=1 NMatS=1 NMatT=0.
 FoFJK:  IHMeth= 1 ICntrl=    2127 DoSepK=F KAlg= 0 I1Cent=           0 FoldK=F
 IRaf=         0 NMat=       1 IRICut=       1 DoRegI=T DoRafI=F ISym2E= 0 IDoP0=0 IntGTp=1.
 FoFCou: FMM=T IPFlag=           0 FMFlag=      100000 FMFlg1=        2001
         NFxFlg=           0 DoJE=F BraDBF=F KetDBF=F FulRan=T
         wScrn=  0.000000 ICntrl=      2127 IOpCl=  0 I1Cent=           0 NGrid=           0
         NMat0=    1 NMatS0=      1 NMatT0=    0 NMatD0=    1 NMtDS0=    0 NMtDT0=    0
 Symmetry not used in FoFCou.
 FMM levels:  10  Number of levels for PrismC:   9
 Leave Link  703 at Thu Feb  7 15:50:12 2019, MaxMem=   104857600 cpu:             815.7 elap:              34.1
 (Enter /home/xinyan/g16/l716.exe)
 Dipole        =-9.34946443D-01-7.26640921D-01-2.52575167D+00
 ***** Axes restored to original set *****
 -------------------------------------------------------------------
 Center     Atomic                   Forces (Hartrees/Bohr)
 Number     Number              X              Y              Z
 -------------------------------------------------------------------
      1        6          -0.000000923   -0.000018077   -0.000019934
      2        6           0.000029027   -0.000007228    0.000019862
      3        6           0.000008891    0.000015143   -0.000008141
      4        6           0.000017297    0.000013411   -0.000002339
      5        6           0.000009586    0.000005324   -0.000014005
      6        6          -0.000023974    0.000009427    0.000012134
      7        1           0.000014637    0.000001746   -0.000017104
      8        1           0.000001272    0.000000536   -0.000030094
      9        1           0.000007857   -0.000004943   -0.000021367
     10        1          -0.000001402    0.000021476   -0.000028050
     11        1          -0.000005758   -0.000008653   -0.000013591
     12        1          -0.000004367   -0.000026463    0.000004461
     13        1          -0.000004891    0.000007422   -0.000007262
     14        1          -0.000010089   -0.000026053    0.000009183
     15        1          -0.000003961    0.000004688   -0.000005161
     16        1           0.000006304   -0.000007243   -0.000006741
     17        7           0.000005009    0.000031903   -0.000010853
     18        6           0.000003141   -0.000018401   -0.000011056
     19        6           0.000008285    0.000023183   -0.000001875
     20        6           0.000003991   -0.000008827   -0.000020694
     21        1           0.000010969   -0.000017799   -0.000003872
     22        6          -0.000005546   -0.000009264    0.000037546
     23        1           0.000004057    0.000008415    0.000017699
     24        6           0.000012635   -0.000005873    0.000005038
     25        1           0.000006945    0.000000314   -0.000007482
     26        1           0.000014803    0.000025913    0.000018068
     27        7           0.000021813    0.000009459    0.000018220
     28        6           0.000009608    0.000018063    0.000008864
     29        1           0.000009508    0.000030892    0.000017683
     30        1           0.000012882    0.000028896   -0.000000184
     31        6          -0.000002492    0.000001509   -0.000024230
     32        1           0.000006249   -0.000009316   -0.000003304
     33        1           0.000025011    0.000002657   -0.000016194
     34        7          -0.000057046   -0.000025836   -0.000017498
     35       16          -0.000036497   -0.000019183   -0.000008158
     36        8           0.000023767    0.000016786   -0.000022208
     37        8          -0.000003449    0.000005799   -0.000006064
     38        6          -0.000006557    0.000024795    0.000051675
     39        6           0.000068992   -0.000019159   -0.000030777
     40        6          -0.000002147    0.000018920   -0.000016246
     41        6           0.000000950   -0.000012139   -0.000010727
     42        6           0.000019555   -0.000008650    0.000049407
     43        6           0.000016483   -0.000006931   -0.000005197
     44        1          -0.000087329    0.000065057    0.000003607
     45        1          -0.000031703    0.000039090    0.000049851
     46        1          -0.000019572    0.000015634    0.000038743
     47        1          -0.000062673    0.000011139    0.000054744
     48        1          -0.000025782   -0.000001744    0.000064200
     49        8           0.000000952    0.000046614    0.000034406
     50        1          -0.000000080   -0.000025218    0.000003522
     51        6          -0.000063693   -0.000025147   -0.000058823
     52        8           0.000048334    0.000040173    0.000035880
     53        8           0.000154769    0.000108655   -0.000000020
     54        1          -0.000136354   -0.000094042    0.000024434
     55        6          -0.000086565    0.000088731   -0.000042322
     56        1          -0.000004665    0.000007401    0.000008609
     57        1           0.000095058   -0.000143737    0.000006315
     58        6          -0.000014259   -0.000043688   -0.000014474
     59        1          -0.000001650    0.000025192    0.000056321
     60        1           0.000036199    0.000030569   -0.000015066
     61        6          -0.000026504    0.000019336    0.000030198
     62        1          -0.000027330   -0.000028649   -0.000015931
     63        1          -0.000014364   -0.000007467   -0.000008029
     64        1          -0.000016216    0.000007702    0.000001308
     65        6          -0.000366051   -0.000025648   -0.000539560
     66        1           0.000021270    0.000439042    0.000477606
     67        1           0.000382663   -0.000356525    0.000055770
     68        6          -0.000583859   -0.000020994   -0.000400436
     69        1           0.000001884   -0.000107484   -0.000098408
     70        1           0.000118526    0.000287567    0.000401823
     71        1           0.000458939   -0.000505827   -0.000004900
     72        6           0.000011322    0.000024115   -0.000008393
     73        1           0.000000466    0.000029388   -0.000006712
     74        1           0.000006166    0.000015333    0.000025516
     75        6          -0.000005955   -0.000009231    0.000000726
     76        1           0.000019457    0.000029057   -0.000026566
     77        1           0.000008171   -0.000001031   -0.000013370
 -------------------------------------------------------------------
 Cartesian Forces:  Max     0.000583859 RMS     0.000105906
 Z-matrix is all fixed cartesians, so copy forces.
 Leave Link  716 at Thu Feb  7 15:50:12 2019, MaxMem=   104857600 cpu:               2.4 elap:               0.1
 (Enter /home/xinyan/g16/l103.exe)

 GradGradGradGradGradGradGradGradGradGradGradGradGradGradGradGradGradGrad
 Berny optimization.
 Search for a local minimum.
 Step number   1 out of a maximum of    2
 All quantities printed in internal units (Hartrees-Bohrs-Radians)
 Second derivative matrix not updated -- first step.
 ITU=  0
     Eigenvalues ---    0.00000   0.00000   0.00000   0.00000   0.00000
     Eigenvalues ---    0.00000   0.00007   0.00013   0.00018   0.00021
     Eigenvalues ---    0.00037   0.00038   0.00084   0.00096   0.00115
     Eigenvalues ---    0.00136   0.00142   0.00204   0.00234   0.00294
     Eigenvalues ---    0.00386   0.00406   0.00449   0.00497   0.00591
     Eigenvalues ---    0.00603   0.00627   0.00689   0.00708   0.00847
     Eigenvalues ---    0.00962   0.01127   0.01164   0.01462   0.01657
     Eigenvalues ---    0.01681   0.01888   0.01947   0.02043   0.02158
     Eigenvalues ---    0.02295   0.02305   0.02444   0.02538   0.02873
     Eigenvalues ---    0.02962   0.03065   0.03103   0.03221   0.03448
     Eigenvalues ---    0.03556   0.03716   0.03910   0.04202   0.04326
     Eigenvalues ---    0.04365   0.04810   0.04842   0.04879   0.04925
     Eigenvalues ---    0.05024   0.05070   0.05099   0.05112   0.05167
     Eigenvalues ---    0.05186   0.05267   0.05375   0.05472   0.05609
     Eigenvalues ---    0.05644   0.05664   0.05703   0.05743   0.05789
     Eigenvalues ---    0.06016   0.06164   0.06266   0.06501   0.06568
     Eigenvalues ---    0.06836   0.06853   0.06972   0.07029   0.07072
     Eigenvalues ---    0.07160   0.07250   0.07267   0.07329   0.07382
     Eigenvalues ---    0.07649   0.07787   0.07860   0.07961   0.08082
     Eigenvalues ---    0.08465   0.08583   0.08792   0.09024   0.09726
     Eigenvalues ---    0.09767   0.10162   0.10462   0.11258   0.11470
     Eigenvalues ---    0.11836   0.12121   0.12604   0.12862   0.12910
     Eigenvalues ---    0.12956   0.13030   0.13353   0.13670   0.13936
     Eigenvalues ---    0.14128   0.14443   0.14644   0.15609   0.15756
     Eigenvalues ---    0.16031   0.16102   0.16894   0.16928   0.16994
     Eigenvalues ---    0.17242   0.17307   0.17752   0.17879   0.19561
     Eigenvalues ---    0.19672   0.20338   0.20619   0.21568   0.21705
     Eigenvalues ---    0.23055   0.23372   0.23791   0.24792   0.26398
     Eigenvalues ---    0.27463   0.28635   0.29572   0.30063   0.30634
     Eigenvalues ---    0.31430   0.32262   0.34028   0.34789   0.36315
     Eigenvalues ---    0.36731   0.39457   0.39965   0.41239   0.43083
     Eigenvalues ---    0.43566   0.44550   0.48137   0.49033   0.50157
     Eigenvalues ---    0.52878   0.56795   0.57634   0.60222   0.64927
     Eigenvalues ---    0.65365   0.66329   0.67401   0.68244   0.68782
     Eigenvalues ---    0.70500   0.77640   0.78206   0.78316   0.81104
     Eigenvalues ---    0.82952   0.83320   0.85463   0.86856   0.87269
     Eigenvalues ---    0.87892   0.88678   0.90631   0.91310   0.93999
     Eigenvalues ---    0.94483   0.94776   0.95037   0.95600   0.96317
     Eigenvalues ---    0.97825   0.97898   0.99553   1.00322   1.00571
     Eigenvalues ---    1.00751   1.03856   1.04273   1.04614   1.06106
     Eigenvalues ---    1.06282   1.06783   1.07078   1.08840   1.09071
     Eigenvalues ---    1.12843   1.15660   1.15809   1.16728   1.19904
     Eigenvalues ---    1.21227   1.24194   1.26036   1.27722   1.37182
     Eigenvalues ---    1.47292   1.53578   1.56541   1.58292   1.58835
     Eigenvalues ---    1.59606   1.67228   1.73023   1.84113   2.33762
 Eigenvalue     1 is   2.22D-16 Eigenvector:
                          Y48       Y47       Y59       Y43       Y42
   1                    0.13561   0.13561   0.13561   0.13561   0.13561
                          Y49       Y58       Y54       Y38       Y60
   1                    0.13561   0.13561   0.13561   0.13561   0.13561
 Eigenvalue     2 is   5.40D-08 Eigenvector:
                          X45       X46       X40       Y46       X41
   1                    0.16681   0.15150   0.14554  -0.14146   0.13704
                          Y73       X44       Y77       X52       Y74
   1                    0.13649   0.13426   0.13262   0.13178   0.13048
 Eigenvalue     3 is   6.54D-08 Eigenvector:
                          Y46       X54       Z47       X53       Y47
   1                    0.20985  -0.19948  -0.18363  -0.17964   0.17582
                          Z46       Y41       Z42       Z41       Y42
   1                   -0.16980   0.16761  -0.15686  -0.14926   0.14862
 Eigenvalue     4 is   1.54D-07 Eigenvector:
                          Z77       Z76       Z57       Z54       Z53
   1                    0.18317   0.17941  -0.17085  -0.16925  -0.16687
                          Z71       Z75       Y64       Z33       Z52
   1                   -0.16510   0.15871  -0.15330   0.14822  -0.14441
 Eigenvalue     5 is   2.50D-07 Eigenvector:
                          Z47       Y46       Y64       Y9        Y47
   1                    0.17984   0.17652   0.16092  -0.16012   0.14952
                          Z42       Y7        Z48       Y73       Y62
   1                    0.14455  -0.14221   0.14094   0.13923   0.13900
 Eigenvalue     6 is   4.52D-07 Eigenvector:
                          Y69       Z54       Y48       Y59       Y71
   1                    0.26050  -0.24456  -0.23226  -0.22995   0.20966
                          Y45       Z53       Y66       Y68       Z70
   1                    0.18741  -0.18066   0.18049   0.18026   0.17930
 Eigenvalue     7 is   6.82D-05 Eigenvector:
                          X69       X45       X46       X70       Z70
   1                    0.27429  -0.24420  -0.22916   0.21799   0.21237
                          X67       X68       Z69       X40       X41
   1                    0.20988   0.20717   0.20641  -0.18744  -0.17928
 Quadratic step=1.977D+00 exceeds max=3.000D-01 adjusted using Lamda=-6.476D-04.
 Angle between NR and scaled steps=  15.52 degrees.
 Angle between quadratic step and forces=  80.72 degrees.
 Linear search not attempted -- first point.
 B after Tr=    -0.001005    0.001034    0.001473
         Rot=    1.000000   -0.000128    0.000067   -0.000071 Ang=  -0.02 deg.
 Variable       Old X    -DE/DX   Delta X   Delta X   Delta X     New X
                                 (Linear)    (Quad)   (Total)
    X1       -9.25295  -0.00000   0.00000   0.00096   0.00001  -9.25294
    Y1        0.44858  -0.00002   0.00000  -0.00699  -0.00705   0.44154
    Z1       -0.84544  -0.00002   0.00000  -0.02036  -0.02001  -0.86545
    X2       -9.58556   0.00003   0.00000   0.00829   0.00789  -9.57767
    Y2       -1.94147  -0.00001   0.00000  -0.00808  -0.00777  -1.94924
    Z2       -2.44377   0.00002   0.00000  -0.02027  -0.02058  -2.46435
    X3       -7.05694   0.00001   0.00000   0.01248   0.01236  -7.04458
    Y3       -2.78009   0.00002   0.00000  -0.00651  -0.00555  -2.78564
    Z3       -3.58540  -0.00001   0.00000  -0.01212  -0.01231  -3.59770
    X4       -5.18890   0.00002   0.00000   0.00638   0.00603  -5.18287
    Y4       -3.24511   0.00001   0.00000  -0.00339  -0.00272  -3.24783
    Z4       -1.44292  -0.00000   0.00000  -0.00615  -0.00621  -1.44913
    X5       -4.76714   0.00001   0.00000  -0.00062  -0.00153  -4.76867
    Y5       -0.80465   0.00001   0.00000  -0.00204  -0.00171  -0.80635
    Z5        0.12446  -0.00001   0.00000  -0.00665  -0.00602   0.11844
    X6       -7.28762  -0.00002   0.00000  -0.00484  -0.00602  -7.29363
    Y6        0.07633   0.00001   0.00000  -0.00398  -0.00429   0.07203
    Z6        1.24754   0.00001   0.00000  -0.01434  -0.01383   1.23371
    X7       -7.27569   0.00001   0.00000   0.01754   0.01780  -7.25789
    Y7       -4.49048   0.00000   0.00000  -0.00735  -0.00612  -4.49660
    Z7       -4.73023  -0.00002   0.00000  -0.01183  -0.01249  -4.74272
    X8      -10.34047   0.00000   0.00000   0.00585   0.00551 -10.33496
    Y8       -3.47135   0.00000   0.00000  -0.00821  -0.00831  -3.47966
    Z8       -1.26298  -0.00003   0.00000  -0.02206  -0.02287  -1.28585
    X9      -10.95658   0.00001   0.00000   0.01275   0.01251 -10.94406
    Y9       -1.61352  -0.00000   0.00000  -0.00998  -0.00947  -1.62299
    Z9       -3.95728  -0.00002   0.00000  -0.02473  -0.02514  -3.98242
   X10       -8.64336  -0.00000   0.00000   0.00268   0.00167  -8.64169
   Y10        2.00419   0.00002   0.00000  -0.00666  -0.00632   1.99787
   Z10       -2.07516  -0.00003   0.00000  -0.01923  -0.01840  -2.09356
   X11      -11.06478  -0.00001   0.00000  -0.00212  -0.00326 -11.06804
   Y11        1.00416  -0.00001   0.00000  -0.00879  -0.00932   0.99485
   Z11       -0.01510  -0.00001   0.00000  -0.02585  -0.02560  -0.04070
   X12       -5.93807  -0.00000   0.00000   0.00369   0.00338  -5.93469
   Y12       -4.70978  -0.00003   0.00000  -0.00273  -0.00248  -4.71226
   Z12       -0.18988   0.00000   0.00000  -0.00686  -0.00739  -0.19727
   X13       -4.13448  -0.00000   0.00000   0.00225   0.00131  -4.13317
   Y13        0.65934   0.00001   0.00000  -0.00206  -0.00130   0.65804
   Z13       -1.20156  -0.00001   0.00000  -0.00533  -0.00425  -1.20581
   X14       -7.96635  -0.00001   0.00000  -0.00738  -0.00855  -7.97490
   Y14       -1.32209  -0.00003   0.00000  -0.00414  -0.00491  -1.32700
   Z14        2.61394   0.00001   0.00000  -0.01564  -0.01558   2.59836
   X15       -6.95833  -0.00000   0.00000  -0.00954  -0.01111  -6.96944
   Y15        1.85550   0.00000   0.00000  -0.00317  -0.00370   1.85180
   Z15        2.25227  -0.00001   0.00000  -0.01417  -0.01315   2.23912
   X16       -6.36877   0.00001   0.00000   0.01485   0.01467  -6.35410
   Y16       -1.26598  -0.00001   0.00000  -0.00664  -0.00527  -1.27125
   Z16       -4.82746  -0.00001   0.00000  -0.01095  -0.01065  -4.83811
   X17       -2.67712   0.00001   0.00000   0.00947   0.00935  -2.66777
   Y17       -4.15082   0.00003   0.00000  -0.00294  -0.00170  -4.15252
   Z17       -2.26085  -0.00001   0.00000   0.00246   0.00251  -2.25834
   X18       -1.34365   0.00000   0.00000   0.00907   0.00901  -1.33464
   Y18       -2.83415  -0.00002   0.00000  -0.01210  -0.01022  -2.84437
   Z18       -4.01822  -0.00001   0.00000  -0.00470  -0.00414  -4.02236
   X19       -1.39675   0.00001   0.00000   0.01053   0.01041  -1.38634
   Y19       -5.68248   0.00002   0.00000   0.00968   0.01068  -5.67180
   Z19       -0.64188  -0.00000   0.00000   0.01360   0.01343  -0.62845
   X20        1.22197   0.00000   0.00000   0.00930   0.00926   1.23124
   Y20       -2.93607  -0.00001   0.00000  -0.00991  -0.00763  -2.94370
   Z20       -4.15424  -0.00002   0.00000  -0.00259  -0.00171  -4.15596
   X21       -2.43741   0.00001   0.00000   0.00839   0.00833  -2.42908
   Y21       -1.63955  -0.00002   0.00000  -0.02166  -0.01962  -1.65916
   Z21       -5.26948  -0.00000   0.00000  -0.01320  -0.01248  -5.28196
   X22        1.16829  -0.00001   0.00000   0.01084   0.01074   1.17903
   Y22       -5.84700  -0.00001   0.00000   0.01389   0.01525  -5.83176
   Z22       -0.63119   0.00004   0.00000   0.01716   0.01729  -0.61390
   X23       -2.54295   0.00000   0.00000   0.01084   0.01067  -2.53228
   Y23       -6.66527   0.00001   0.00000   0.01699   0.01747  -6.64781
   Z23        0.74436   0.00002   0.00000   0.01907   0.01850   0.76286
   X24        2.60567   0.00001   0.00000   0.00999   0.00990   2.61556
   Y24       -4.27904  -0.00001   0.00000   0.00423   0.00622  -4.27282
   Z24       -2.26854   0.00001   0.00000   0.00703   0.00775  -2.26079
   X25        2.17851   0.00001   0.00000   0.00873   0.00874   2.18725
   Y25       -1.84023   0.00000   0.00000  -0.01808  -0.01530  -1.85553
   Z25       -5.58987  -0.00001   0.00000  -0.00924  -0.00795  -5.59782
   X26        2.05517   0.00001   0.00000   0.01142   0.01130   2.06647
   Y26       -6.99161   0.00003   0.00000   0.02508   0.02619  -6.96542
   Z26        0.80905   0.00002   0.00000   0.02569   0.02565   0.83470
   X27        5.09901   0.00002   0.00000   0.00988   0.00972   5.10874
   Y27       -4.08135   0.00001   0.00000   0.00775   0.01004  -4.07132
   Z27       -2.05436   0.00002   0.00000   0.00590   0.00701  -2.04735
   X28        6.42630   0.00001   0.00000   0.01047   0.01013   6.43643
   Y28       -4.94921   0.00002   0.00000   0.02671   0.02859  -4.92062
   Z28        0.22951   0.00001   0.00000   0.01274   0.01381   0.24332
   X29        6.20344   0.00001   0.00000   0.01093   0.01085   6.21429
   Y29       -6.98900   0.00003   0.00000   0.02869   0.03048  -6.95852
   Z29        0.47273   0.00002   0.00000   0.02954   0.03006   0.50279
   X30        5.63376   0.00001   0.00000   0.01062   0.00992   5.64369
   Y30       -3.93282   0.00003   0.00000   0.03997   0.04132  -3.89150
   Z30        1.86072  -0.00000   0.00000   0.00454   0.00577   1.86649
   X31        6.50557  -0.00000   0.00000   0.00910   0.00883   6.51440
   Y31       -2.05680   0.00000   0.00000  -0.00216   0.00066  -2.05614
   Z31       -3.32977  -0.00002   0.00000  -0.01078  -0.00896  -3.33873
   X32        7.00580   0.00001   0.00000   0.00835   0.00843   7.01423
   Y32       -2.64486  -0.00001   0.00000  -0.01759  -0.01421  -2.65907
   Z32       -5.25348  -0.00000   0.00000  -0.00625  -0.00452  -5.25800
   X33        5.32170   0.00003   0.00000   0.00918   0.00868   5.33038
   Y33       -0.36466   0.00000   0.00000  -0.00266   0.00001  -0.36465
   Z33       -3.39680  -0.00002   0.00000  -0.02392  -0.02183  -3.41863
   X34       -2.69082  -0.00006   0.00000  -0.00631  -0.00742  -2.69824
   Y34       -1.04222  -0.00003   0.00000  -0.00038  -0.00022  -1.04244
   Z34        1.90919  -0.00002   0.00000  -0.00004   0.00081   1.91000
   X35       -2.85679  -0.00004   0.00000  -0.01360  -0.01482  -2.87161
   Y35       -2.71249  -0.00002   0.00000  -0.00025  -0.00077  -2.71327
   Z35        4.49063  -0.00001   0.00000  -0.00047  -0.00008   4.49055
   X36       -5.12505   0.00002   0.00000  -0.01190  -0.01288  -5.13793
   Y36       -4.29985   0.00002   0.00000  -0.00200  -0.00281  -4.30265
   Z36        4.36472  -0.00002   0.00000  -0.00812  -0.00844   4.35628
   X37       -0.42536  -0.00000   0.00000  -0.01386  -0.01495  -0.44031
   Y37       -3.97836   0.00001   0.00000   0.00172   0.00144  -3.97692
   Z37        4.88523  -0.00001   0.00000   0.00746   0.00785   4.89308
   X38       -1.37360  -0.00001   0.00000  -0.00226  -0.00400  -1.37761
   Y38        4.68374   0.00002   0.00000   0.01559   0.01629   4.70003
   Z38        0.53838   0.00005   0.00000   0.01703   0.01952   0.55791
   X39       -0.44862   0.00007   0.00000  -0.00970  -0.01101  -0.45963
   Y39        3.84157  -0.00002   0.00000   0.02426   0.02569   3.86725
   Z39       -1.80087  -0.00003   0.00000   0.01087   0.01328  -1.78760
   X40       -1.90057  -0.00000   0.00000  -0.02090  -0.02196  -1.92253
   Y40        4.08147   0.00002   0.00000   0.02243   0.02421   4.10568
   Z40       -3.98456  -0.00002   0.00000   0.01815   0.02042  -3.96414
   X41       -4.30846   0.00000   0.00000  -0.02537  -0.02659  -4.33505
   Y41        5.15181  -0.00001   0.00000   0.01116   0.01258   5.16439
   Z41       -3.89603  -0.00001   0.00000   0.03174   0.03396  -3.86207
   X42       -5.25304   0.00002   0.00000  -0.01831  -0.01996  -5.27300
   Y42        5.98374  -0.00001   0.00000   0.00196   0.00265   5.98639
   Z42       -1.58635   0.00005   0.00000   0.03803   0.04033  -1.54601
   X43       -3.78881   0.00002   0.00000  -0.00680  -0.00870  -3.79751
   Y43        5.75180  -0.00001   0.00000   0.00458   0.00492   5.75672
   Z43        0.59398  -0.00001   0.00000   0.03059   0.03303   0.62701
   X44        1.36845  -0.00009   0.00000  -0.00596  -0.00714   1.36131
   Y44        2.89746   0.00007   0.00000   0.03262   0.03432   2.93178
   Z44       -1.85618   0.00000   0.00000   0.00035   0.00275  -1.85343
   X45       -1.13244  -0.00003   0.00000  -0.02634  -0.02706  -1.15950
   Y45        3.43902   0.00004   0.00000   0.02987   0.03222   3.47124
   Z45       -5.78046   0.00005   0.00000   0.01330   0.01551  -5.76495
   X46       -5.42831  -0.00002   0.00000  -0.03432  -0.03534  -5.46365
   Y46        5.34600   0.00002   0.00000   0.00966   0.01135   5.35735
   Z46       -5.60610   0.00004   0.00000   0.03746   0.03957  -5.56653
   X47       -7.12332  -0.00006   0.00000  -0.02197  -0.02375  -7.14707
   Y47        6.82414   0.00001   0.00000  -0.00722  -0.00684   6.81731
   Z47       -1.47769   0.00005   0.00000   0.04884   0.05111  -1.42658
   X48       -4.54060  -0.00003   0.00000  -0.00167  -0.00391  -4.54451
   Y48        6.42991  -0.00000   0.00000  -0.00272  -0.00295   6.42695
   Z48        2.38408   0.00006   0.00000   0.03564   0.03815   2.42223
   X49        1.02905   0.00000   0.00000   0.00574   0.00385   1.03290
   Y49        2.42293   0.00005   0.00000   0.01812   0.01826   2.44119
   Z49        4.02226   0.00003   0.00000   0.01299   0.01522   4.03749
   X50       -0.81521  -0.00000   0.00000  -0.00476  -0.00587  -0.82108
   Y50       -0.57058  -0.00003   0.00000   0.00021   0.00077  -0.56981
   Z50        1.36835   0.00000   0.00000   0.00585   0.00707   1.37542
   X51        3.18389  -0.00006   0.00000  -0.00971  -0.01124   3.17265
   Y51        1.06163  -0.00003   0.00000   0.00112   0.00188   1.06351
   Z51        2.80806  -0.00006   0.00000   0.00451   0.00669   2.81474
   X52        2.43960   0.00005   0.00000  -0.02756  -0.02865   2.41095
   Y52       -0.02878   0.00004   0.00000   0.00252   0.00371  -0.02507
   Z52        0.69616   0.00004   0.00000   0.01020   0.01199   0.70814
   X53        3.87530   0.00015   0.00000  -0.01199  -0.01354   3.86176
   Y53       -0.66191   0.00011   0.00000  -0.00024   0.00013  -0.66179
   Z53        4.73473  -0.00000   0.00000   0.00415   0.00597   4.74070
   X54        2.55109  -0.00014   0.00000  -0.02194  -0.02331   2.52778
   Y54       -1.94116  -0.00009   0.00000   0.00963   0.00980  -1.93136
   Z54        4.73312   0.00002   0.00000   0.01426   0.01558   4.74870
   X55        5.47728  -0.00009   0.00000   0.00367   0.00190   5.47918
   Y55        2.88302   0.00009   0.00000  -0.01739  -0.01626   2.86676
   Z55        2.64900  -0.00004   0.00000  -0.01055  -0.00761   2.64139
   X56        5.38848  -0.00000   0.00000   0.02510   0.02294   5.41142
   Y56        4.20105   0.00001   0.00000  -0.01514  -0.01442   4.18663
   Z56        4.24790   0.00001   0.00000  -0.01112  -0.00785   4.24004
   X57        7.14864   0.00010   0.00000  -0.00448  -0.00612   7.14253
   Y57        1.70699  -0.00014   0.00000  -0.03252  -0.03124   1.67575
   Z57        2.99635   0.00001   0.00000  -0.01993  -0.01707   2.97928
   X58        0.18448  -0.00001   0.00000   0.00964   0.00756   0.19204
   Y58        4.70370  -0.00004   0.00000   0.01789   0.01819   4.72188
   Z58        2.97743  -0.00001   0.00000   0.00945   0.01216   2.98959
   X59       -1.01597  -0.00000   0.00000   0.01993   0.01753  -0.99844
   Y59        5.55976   0.00003   0.00000   0.02673   0.02648   5.58625
   Z59        4.43657   0.00006   0.00000   0.01291   0.01568   4.45225
   X60        1.77785   0.00004   0.00000   0.01306   0.01084   1.78869
   Y60        6.01186   0.00003   0.00000   0.01142   0.01201   6.02387
   Z60        2.71113  -0.00002   0.00000  -0.00271   0.00054   2.71168
   X61       -3.20813  -0.00003   0.00000  -0.02357  -0.02544  -3.23357
   Y61       -0.48566   0.00002   0.00000  -0.00031  -0.00152  -0.48718
   Z61        6.98112   0.00003   0.00000  -0.00177  -0.00086   6.98026
   X62       -1.56602  -0.00003   0.00000  -0.02416  -0.02619  -1.59221
   Y62        0.76368  -0.00003   0.00000   0.00079  -0.00017   0.76351
   Z62        6.86590  -0.00002   0.00000   0.00293   0.00439   6.87029
   X63       -4.96760  -0.00001   0.00000  -0.02341  -0.02539  -4.99299
   Y63        0.54649  -0.00001   0.00000  -0.00179  -0.00317   0.54332
   Z63        6.67672  -0.00001   0.00000  -0.00763  -0.00668   6.67004
   X64       -3.26497  -0.00002   0.00000  -0.02828  -0.03024  -3.29522
   Y64       -1.53217   0.00001   0.00000   0.00007  -0.00161  -1.53378
   Z64        8.75709   0.00000   0.00000  -0.00171  -0.00107   8.75602
   X65        5.86036  -0.00037   0.00000   0.00136  -0.00028   5.86009
   Y65        4.31750  -0.00003   0.00000  -0.02408  -0.02226   4.29523
   Z65        0.17697  -0.00054   0.00000  -0.01461  -0.01125   0.16572
   X66        5.80932   0.00002   0.00000  -0.03430  -0.03553   5.77379
   Y66        2.97076   0.00044   0.00000  -0.02274  -0.02052   2.95024
   Z66       -1.39758   0.00048   0.00000  -0.01203  -0.00903  -1.40661
   X67        4.30773   0.00038   0.00000   0.01959   0.01781   4.32553
   Y67        5.64255  -0.00036   0.00000  -0.00133   0.00036   5.64292
   Z67       -0.17860   0.00006   0.00000  -0.00064   0.00286  -0.17574
   X68        8.35839  -0.00058   0.00000   0.02486   0.02303   8.38142
   Y68        5.76595  -0.00002   0.00000  -0.06587  -0.06368   5.70227
   Z68        0.15917  -0.00040   0.00000  -0.04064  -0.03658   0.12259
   X69        8.64198   0.00000   0.00000   0.02225   0.02052   8.66250
   Y69        6.78882  -0.00011   0.00000  -0.07054  -0.06785   6.72097
   Z69       -1.61579  -0.00010   0.00000  -0.04384  -0.03948  -1.65528
   X70        8.41729   0.00012   0.00000   0.06681   0.06458   8.48187
   Y70        7.14453   0.00029   0.00000  -0.06720  -0.06539   7.07914
   Z70        1.70015   0.00040   0.00000  -0.03893  -0.03450   1.66565
   X71        9.96094   0.00046   0.00000   0.00674   0.00506   9.96600
   Y71        4.48215  -0.00051   0.00000  -0.09543  -0.09308   4.38907
   Z71        0.42071  -0.00000   0.00000  -0.06016  -0.05623   0.36448
   X72        9.15436   0.00001   0.00000   0.01026   0.00988   9.16424
   Y72       -4.17650   0.00002   0.00000   0.02299   0.02539  -4.15111
   Z72       -0.28193  -0.00001   0.00000   0.00597   0.00760  -0.27432
   X73       10.24470   0.00000   0.00000   0.01037   0.00973  10.25443
   Y73       -4.00890   0.00003   0.00000   0.03788   0.03999  -3.96891
   Z73        1.46095  -0.00001   0.00000   0.00443   0.00625   1.46720
   X74       10.07541   0.00001   0.00000   0.01041   0.01040  10.08581
   Y74       -5.56923   0.00002   0.00000   0.01279   0.01564  -5.55359
   Z74       -1.50581   0.00003   0.00000   0.01775   0.01915  -1.48666
   X75        8.83436  -0.00001   0.00000   0.00996   0.00941   8.84376
   Y75       -1.65272  -0.00001   0.00000   0.01134   0.01406  -1.63865
   Z75       -1.65882   0.00000   0.00000  -0.01525  -0.01301  -1.67183
   X76        8.41002   0.00002   0.00000   0.01115   0.01021   8.42022
   Y76       -0.17506   0.00003   0.00000   0.02330   0.02560  -0.14946
   Z76       -0.28000  -0.00003   0.00000  -0.02770  -0.02513  -0.30513
   X77       10.49344   0.00001   0.00000   0.00957   0.00909  10.50253
   Y77       -1.08710  -0.00000   0.00000   0.00164   0.00487  -1.08223
   Z77       -2.74795  -0.00001   0.00000  -0.02088  -0.01828  -2.76623
         Item               Value     Threshold  Converged?
 Maximum Force            0.000584     0.000450     NO 
 RMS     Force            0.000106     0.000300     YES
 Maximum Displacement     0.093081     0.001800     NO 
 RMS     Displacement     0.019703     0.001200     NO 
 Predicted change in Energy=-7.117360D-05
 GradGradGradGradGradGradGradGradGradGradGradGradGradGradGradGradGradGrad

 Leave Link  103 at Thu Feb  7 15:50:13 2019, MaxMem=   104857600 cpu:              22.9 elap:               1.0
 (Enter /home/xinyan/g16/l9999.exe)
 1\1\GINC-TSE4\Force\RM062X\6-31G(d)\C27H41N3O5S1\STEVETSE\07-Feb-2019\
 0\\#p M062X/6-31G* em=gd3 force int=ultrafine\\Title\\0,1\C,-4.89645,0
 .23738,-0.44739\C,-5.07246,-1.02738,-1.29319\C,-3.73437,-1.47116,-1.89
 731\C,-2.74585,-1.71724,-0.76356\C,-2.52266,-0.4258,0.06586\C,-3.85644
 ,0.04039,0.66017\H,-3.85013,-2.37626,-2.50313\H,-5.47194,-1.83696,-0.6
 6834\H,-5.79797,-0.85384,-2.0941\H,-4.57387,1.06057,-1.09813\H,-5.8552
 3,0.53138,-0.00799\H,-3.14229,-2.49231,-0.10048\H,-2.18787,0.34891,-0.
 63584\H,-4.21561,-0.69962,1.38324\H,-3.68219,0.98189,1.19185\H,-3.3702
 1,-0.66993,-2.55458\N,-1.41667,-2.19652,-1.19639\C,-0.71103,-1.49977,-
 2.12635\C,-0.73913,-3.00704,-0.33967\C,0.64664,-1.5537,-2.19833\H,-1.2
 8982,-0.86761,-2.78849\C,0.61823,-3.0941,-0.33401\H,-1.34567,-3.52711,
 0.3939\C,1.37886,-2.26437,-1.20046\H,1.15282,-0.97381,-2.95803\H,1.087
 55,-3.6998,0.42813\N,2.69828,-2.15976,-1.08712\C,3.40065,-2.61901,0.12
 145\H,3.28272,-3.69842,0.25016\H,2.98126,-2.08116,0.98465\C,3.4426,-1.
 08841,-1.76204\H,3.70731,-1.3996,-2.78002\H,2.81612,-0.19297,-1.79751\
 N,-1.42392,-0.55152,1.0103\S,-1.51175,-1.43539,2.37634\O,-2.71206,-2.2
 7538,2.30971\O,-0.22509,-2.10526,2.58515\C,-0.72688,2.47853,0.2849\C,-
 0.2374,2.03287,-0.95298\C,-1.00574,2.15982,-2.10854\C,-2.27994,2.72622
 ,-2.06169\C,-2.77979,3.16646,-0.83946\C,-2.00495,3.04372,0.31432\H,0.7
 2415,1.53327,-0.98225\H,-0.59926,1.81985,-3.05889\H,-2.87254,2.82898,-
 2.96662\H,-3.7695,3.61118,-0.78196\H,-2.40278,3.40256,1.2616\O,0.54455
 ,1.28216,2.12849\H,-0.43139,-0.30194,0.7241\C,1.68484,0.56179,1.48596\
 O,1.29098,-0.01523,0.36839\O,2.05072,-0.35027,2.50551\H,1.34998,-1.027
 22,2.50466\C,2.89845,1.52563,1.40179\H,2.85146,2.2231,2.24789\H,3.7829
 ,0.9033,1.5856\C,0.09762,2.48909,1.57559\H,-0.53763,2.9421,2.34773\H,0
 .9408,3.18134,1.43467\C,-1.69767,-0.257,3.69425\H,-0.8287,0.40412,3.63
 328\H,-2.62874,0.28919,3.53317\H,-1.72775,-0.81079,4.63405\C,3.10117,2
 .28472,0.09365\H,3.07416,1.57206,-0.73957\H,2.27955,2.98591,-0.09451\C
 ,4.42307,3.05121,0.08423\H,4.57314,3.59249,-0.85504\H,4.45424,3.78072,
 0.89968\H,5.2711,2.37185,0.22263\C,4.84428,-2.21011,-0.14919\H,5.42126
 ,-2.12142,0.7731\H,5.33168,-2.94711,-0.79684\C,4.67494,-0.87458,-0.877
 81\H,4.45039,-0.09264,-0.14817\H,5.55289,-0.57527,-1.45415\\Version=ES
 64L-G16RevA.03\State=1-A\HF=-1991.3587615\RMSD=9.563e-09\RMSF=1.059e-0
 4\Dipole=-0.9011498,-0.659112,-2.5563751\Quadrupole=7.9544941,-5.43903
 6,-2.5154581,-9.2020621,-3.9852316,7.2754412\PG=C01 [X(C27H41N3O5S1)]\
 \@


    UPON JULIA'S CLOTHES

 WHENAS IN SILKS MY JULIA GOES,
 THEN, THEN, METHINKS, HOW SWEETLY FLOWS
 THAT LIQUEFACTION OF HER CLOTHES.

 NEXT, WHEN I CAST MINE EYES, AND SEE
 THAT BRAVE VIBRATION, EACH WAY FREE,
 O, HOW THAT GLITTERING TAKETH ME!
     -- ROBERT HERRICK, 1648
 Job cpu time:       0 days  1 hours 18 minutes 34.5 seconds.
 Elapsed time:       0 days  0 hours  3 minutes 17.6 seconds.
 File lengths (MBytes):  RWF=    216 Int=      0 D2E=      0 Chk=     25 Scr=      1
 Normal termination of Gaussian 16 at Thu Feb  7 15:50:14 2019.
