 Entering Gaussian System, Link 0=g16
 Input=C27N3H41SO5-110.gjf
 Output=C27N3H41SO5-110.log
 Initial command:
 /home/xinyan/g16/l1.exe "/local/home/tmp/Gau-12301.inp" -scrdir="/local/home/tmp/"
 Entering Link 1 = /home/xinyan/g16/l1.exe PID=     12302.
  
 Copyright (c) 1988,1990,1992,1993,1995,1998,2003,2009,2016,
            Gaussian, Inc.  All Rights Reserved.
  
 This is part of the Gaussian(R) 16 program.  It is based on
 the Gaussian(R) 09 system (copyright 2009, Gaussian, Inc.),
 the Gaussian(R) 03 system (copyright 2003, Gaussian, Inc.),
 the Gaussian(R) 98 system (copyright 1998, Gaussian, Inc.),
 the Gaussian(R) 94 system (copyright 1995, Gaussian, Inc.),
 the Gaussian 92(TM) system (copyright 1992, Gaussian, Inc.),
 the Gaussian 90(TM) system (copyright 1990, Gaussian, Inc.),
 the Gaussian 88(TM) system (copyright 1988, Gaussian, Inc.),
 the Gaussian 86(TM) system (copyright 1986, Carnegie Mellon
 University), and the Gaussian 82(TM) system (copyright 1983,
 Carnegie Mellon University). Gaussian is a federally registered
 trademark of Gaussian, Inc.
  
 This software contains proprietary and confidential information,
 including trade secrets, belonging to Gaussian, Inc.
  
 This software is provided under written license and may be
 used, copied, transmitted, or stored only in accord with that
 written license.
  
 The following legend is applicable only to US Government
 contracts under FAR:
  
                    RESTRICTED RIGHTS LEGEND
  
 Use, reproduction and disclosure by the US Government is
 subject to restrictions as set forth in subparagraphs (a)
 and (c) of the Commercial Computer Software - Restricted
 Rights clause in FAR 52.227-19.
  
 Gaussian, Inc.
 340 Quinnipiac St., Bldg. 40, Wallingford CT 06492
  
  
 ---------------------------------------------------------------
 Warning -- This program may not be used in any manner that
 competes with the business of Gaussian, Inc. or will provide
 assistance to any competitor of Gaussian, Inc.  The licensee
 of this program is prohibited from giving any competitor of
 Gaussian, Inc. access to this program.  By using this program,
 the user acknowledges that Gaussian, Inc. is engaged in the
 business of creating and licensing software in the field of
 computational chemistry and represents and warrants to the
 licensee that it is not a competitor of Gaussian, Inc. and that
 it will not use this program in any manner prohibited above.
 ---------------------------------------------------------------
  

 Cite this work as:
 Gaussian 16, Revision A.03,
 M. J. Frisch, G. W. Trucks, H. B. Schlegel, G. E. Scuseria, 
 M. A. Robb, J. R. Cheeseman, G. Scalmani, V. Barone, 
 G. A. Petersson, H. Nakatsuji, X. Li, M. Caricato, A. V. Marenich, 
 J. Bloino, B. G. Janesko, R. Gomperts, B. Mennucci, H. P. Hratchian, 
 J. V. Ortiz, A. F. Izmaylov, J. L. Sonnenberg, D. Williams-Young, 
 F. Ding, F. Lipparini, F. Egidi, J. Goings, B. Peng, A. Petrone, 
 T. Henderson, D. Ranasinghe, V. G. Zakrzewski, J. Gao, N. Rega, 
 G. Zheng, W. Liang, M. Hada, M. Ehara, K. Toyota, R. Fukuda, 
 J. Hasegawa, M. Ishida, T. Nakajima, Y. Honda, O. Kitao, H. Nakai, 
 T. Vreven, K. Throssell, J. A. Montgomery, Jr., J. E. Peralta, 
 F. Ogliaro, M. J. Bearpark, J. J. Heyd, E. N. Brothers, K. N. Kudin, 
 V. N. Staroverov, T. A. Keith, R. Kobayashi, J. Normand, 
 K. Raghavachari, A. P. Rendell, J. C. Burant, S. S. Iyengar, 
 J. Tomasi, M. Cossi, J. M. Millam, M. Klene, C. Adamo, R. Cammi, 
 J. W. Ochterski, R. L. Martin, K. Morokuma, O. Farkas, 
 J. B. Foresman, and D. J. Fox, Gaussian, Inc., Wallingford CT, 2016.
 
 ******************************************
 Gaussian 16:  ES64L-G16RevA.03 25-Dec-2016
                 7-Feb-2019 
 ******************************************
 %nproc=24
 Will use up to   24 processors via shared memory.
 ------------------------------------------
 #p M062X/6-31G* em=gd3 force int=ultrafine
 ------------------------------------------
 1/10=7,30=1,38=1/1,3;
 2/12=2,17=6,18=5,40=1/2;
 3/5=1,6=6,7=1,11=2,25=1,30=1,71=1,74=-55,75=-5,124=31/1,2,3;
 4//1;
 5/5=2,38=5/2;
 6/7=2,8=2,9=2,10=2,28=1/1;
 7/29=1/1,2,3,16;
 1/10=7,30=1/3;
 99//99;
 Leave Link    1 at Thu Feb  7 14:38:12 2019, MaxMem=           0 cpu:               2.4 elap:               0.1
 (Enter /home/xinyan/g16/l101.exe)
 -----
 Title
 -----
 Symbolic Z-matrix:
 Charge =  0 Multiplicity = 1
 C                    -4.89713   0.24693  -0.43106 
 C                    -5.08584  -1.02339  -1.26572 
 C                    -3.75496  -1.47782  -1.87781 
 C                    -2.75752  -1.71947  -0.75093 
 C                    -2.52386  -0.42463   0.06953 
 C                    -3.85047   0.05237   0.67074 
 H                    -3.8798   -2.38743  -2.47493 
 H                    -5.48357  -1.8263   -0.63119 
 H                    -5.81743  -0.85289  -2.06173 
 H                    -4.57443   1.06332  -1.09037 
 H                    -5.85117   0.5497    0.01264 
 H                    -3.14984  -2.49015  -0.08042 
 H                    -2.19024   0.34499  -0.63825 
 H                    -4.20816  -0.68059   1.40166 
 H                    -3.66718   0.99669   1.19443 
 H                    -3.39295  -0.68393  -2.54504 
 N                    -1.4326   -2.20311  -1.19227 
 C                    -0.72843  -1.50065  -2.11963 
 C                    -0.75362  -3.02011  -0.3432 
 C                     0.6288   -1.55493  -2.19527 
 H                    -1.30841  -0.86216  -2.77464 
 C                     0.60354  -3.11228  -0.34477 
 H                    -1.35813  -3.5411    0.39143 
 C                     1.36326  -2.27758  -1.20749 
 H                     1.13422  -0.96831  -2.9504 
 H                     1.07418  -3.72463   0.41118 
 N                     2.68315  -2.17781  -1.09958 
 C                     3.39076  -2.66237   0.09549 
 H                     3.26939  -3.74354   0.20471 
 H                     2.97911  -2.13853   0.97077 
 C                     3.42576  -1.0919   -1.75454 
 H                     3.6894   -1.38262  -2.77885 
 H                     2.79835  -0.19662  -1.76701 
 N                    -1.41903  -0.55081   1.00722 
 S                    -1.49688  -1.43117   2.37775 
 O                    -2.70352  -2.26247   2.32232 
 O                    -0.21235  -2.10807   2.57365 
 C                    -0.71184   2.46246   0.25331 
 C                    -0.21707   1.99936  -0.97624 
 C                    -0.9762    2.12035  -2.13872 
 C                    -2.24601   2.69731  -2.10773 
 C                    -2.75053   3.15594  -0.89401 
 C                    -1.9852    3.0394    0.2667 
 H                     0.74052   1.49083  -0.99158 
 H                    -0.56547   1.76673  -3.0823 
 H                    -2.83125   2.7946   -3.01803 
 H                    -3.73674   3.60984  -0.84861 
 H                    -2.38722   3.41178   1.20698 
 O                     0.55306   1.27232   2.10606 
 H                    -0.43313  -0.30058   0.71689 
 C                     1.70931   0.56127   1.47744 
 O                     1.33397  -0.01879   0.35655 
 O                     2.06851  -0.34786   2.50207 
 H                     1.3742   -1.03117   2.48863 
 C                     2.91082   1.54008   1.41174 
 H                     2.83936   2.23454   2.25787 
 H                     3.80378   0.93349   1.60634 
 C                     0.10001   2.47641   1.55262 
 H                    -0.54813   2.92064   2.31943 
 H                     0.93702   3.17873   1.42297 
 C                    -1.66323  -0.24954   3.69519 
 H                    -0.78898   0.40388   3.62763 
 H                    -2.5907    0.30435   3.53988 
 H                    -1.6918   -0.80267   4.63544 
 C                     3.11659   2.30823   0.10931 
 H                     3.18884   1.59654  -0.72092 
 H                     2.25308   2.94007  -0.12331 
 C                     4.37204   3.17711   0.16297 
 H                     4.53421   3.71755  -0.77474 
 H                     4.29668   3.91647   0.96751 
 H                     5.26156   2.56831   0.36174 
 C                     4.83341  -2.25125  -0.17571 
 H                     5.41863  -2.18851   0.74344 
 H                     5.31269  -2.97221  -0.84719 
 C                     4.65875  -0.89706  -0.86705 
 H                     4.42956  -0.1377   -0.11507 
 H                     5.5345   -0.57788  -1.43596 
 
 ITRead=  0  0  0  0  0  0  0  0  0  0  0  0  0  0  0  0  0  0  0  0
 ITRead=  0  0  0  0  0  0  0  0  0  0  0  0  0  0  0  0  0  0  0  0
 ITRead=  0  0  0  0  0  0  0  0  0  0  0  0  0  0  0  0  0  0  0  0
 ITRead=  0  0  0  0  0  0  0  0  0  0  0  0  0  0  0  0  0
 MicOpt= -1 -1 -1 -1 -1 -1 -1 -1 -1 -1 -1 -1 -1 -1 -1 -1 -1 -1 -1 -1
 MicOpt= -1 -1 -1 -1 -1 -1 -1 -1 -1 -1 -1 -1 -1 -1 -1 -1 -1 -1 -1 -1
 MicOpt= -1 -1 -1 -1 -1 -1 -1 -1 -1 -1 -1 -1 -1 -1 -1 -1 -1 -1 -1 -1
 MicOpt= -1 -1 -1 -1 -1 -1 -1 -1 -1 -1 -1 -1 -1 -1 -1 -1 -1
 NAtoms=     77 NQM=       77 NQMF=       0 NMMI=      0 NMMIF=      0
                NMic=       0 NMicF=      0.
                    Isotopes and Nuclear Properties:
 (Nuclear quadrupole moments (NQMom) in fm**2, nuclear magnetic moments (NMagM)
  in nuclear magnetons)

  Atom         1           2           3           4           5           6           7           8           9          10
 IAtWgt=          12          12          12          12          12          12           1           1           1           1
 AtmWgt=  12.0000000  12.0000000  12.0000000  12.0000000  12.0000000  12.0000000   1.0078250   1.0078250   1.0078250   1.0078250
 NucSpn=           0           0           0           0           0           0           1           1           1           1
 AtZEff=  -0.0000000  -0.0000000  -0.0000000  -0.0000000  -0.0000000  -0.0000000  -0.0000000  -0.0000000  -0.0000000  -0.0000000
 NQMom=    0.0000000   0.0000000   0.0000000   0.0000000   0.0000000   0.0000000   0.0000000   0.0000000   0.0000000   0.0000000
 NMagM=    0.0000000   0.0000000   0.0000000   0.0000000   0.0000000   0.0000000   2.7928460   2.7928460   2.7928460   2.7928460
 AtZNuc=   6.0000000   6.0000000   6.0000000   6.0000000   6.0000000   6.0000000   1.0000000   1.0000000   1.0000000   1.0000000

  Atom        11          12          13          14          15          16          17          18          19          20
 IAtWgt=           1           1           1           1           1           1          14          12          12          12
 AtmWgt=   1.0078250   1.0078250   1.0078250   1.0078250   1.0078250   1.0078250  14.0030740  12.0000000  12.0000000  12.0000000
 NucSpn=           1           1           1           1           1           1           2           0           0           0
 AtZEff=  -0.0000000  -0.0000000  -0.0000000  -0.0000000  -0.0000000  -0.0000000  -0.0000000  -0.0000000  -0.0000000  -0.0000000
 NQMom=    0.0000000   0.0000000   0.0000000   0.0000000   0.0000000   0.0000000   2.0440000   0.0000000   0.0000000   0.0000000
 NMagM=    2.7928460   2.7928460   2.7928460   2.7928460   2.7928460   2.7928460   0.4037610   0.0000000   0.0000000   0.0000000
 AtZNuc=   1.0000000   1.0000000   1.0000000   1.0000000   1.0000000   1.0000000   7.0000000   6.0000000   6.0000000   6.0000000

  Atom        21          22          23          24          25          26          27          28          29          30
 IAtWgt=           1          12           1          12           1           1          14          12           1           1
 AtmWgt=   1.0078250  12.0000000   1.0078250  12.0000000   1.0078250   1.0078250  14.0030740  12.0000000   1.0078250   1.0078250
 NucSpn=           1           0           1           0           1           1           2           0           1           1
 AtZEff=  -0.0000000  -0.0000000  -0.0000000  -0.0000000  -0.0000000  -0.0000000  -0.0000000  -0.0000000  -0.0000000  -0.0000000
 NQMom=    0.0000000   0.0000000   0.0000000   0.0000000   0.0000000   0.0000000   2.0440000   0.0000000   0.0000000   0.0000000
 NMagM=    2.7928460   0.0000000   2.7928460   0.0000000   2.7928460   2.7928460   0.4037610   0.0000000   2.7928460   2.7928460
 AtZNuc=   1.0000000   6.0000000   1.0000000   6.0000000   1.0000000   1.0000000   7.0000000   6.0000000   1.0000000   1.0000000

  Atom        31          32          33          34          35          36          37          38          39          40
 IAtWgt=          12           1           1          14          32          16          16          12          12          12
 AtmWgt=  12.0000000   1.0078250   1.0078250  14.0030740  31.9720718  15.9949146  15.9949146  12.0000000  12.0000000  12.0000000
 NucSpn=           0           1           1           2           0           0           0           0           0           0
 AtZEff=  -0.0000000  -0.0000000  -0.0000000  -0.0000000  -0.0000000  -0.0000000  -0.0000000  -0.0000000  -0.0000000  -0.0000000
 NQMom=    0.0000000   0.0000000   0.0000000   2.0440000   0.0000000   0.0000000   0.0000000   0.0000000   0.0000000   0.0000000
 NMagM=    0.0000000   2.7928460   2.7928460   0.4037610   0.0000000   0.0000000   0.0000000   0.0000000   0.0000000   0.0000000
 AtZNuc=   6.0000000   1.0000000   1.0000000   7.0000000  16.0000000   8.0000000   8.0000000   6.0000000   6.0000000   6.0000000

  Atom        41          42          43          44          45          46          47          48          49          50
 IAtWgt=          12          12          12           1           1           1           1           1          16           1
 AtmWgt=  12.0000000  12.0000000  12.0000000   1.0078250   1.0078250   1.0078250   1.0078250   1.0078250  15.9949146   1.0078250
 NucSpn=           0           0           0           1           1           1           1           1           0           1
 AtZEff=  -0.0000000  -0.0000000  -0.0000000  -0.0000000  -0.0000000  -0.0000000  -0.0000000  -0.0000000  -0.0000000  -0.0000000
 NQMom=    0.0000000   0.0000000   0.0000000   0.0000000   0.0000000   0.0000000   0.0000000   0.0000000   0.0000000   0.0000000
 NMagM=    0.0000000   0.0000000   0.0000000   2.7928460   2.7928460   2.7928460   2.7928460   2.7928460   0.0000000   2.7928460
 AtZNuc=   6.0000000   6.0000000   6.0000000   1.0000000   1.0000000   1.0000000   1.0000000   1.0000000   8.0000000   1.0000000

  Atom        51          52          53          54          55          56          57          58          59          60
 IAtWgt=          12          16          16           1          12           1           1          12           1           1
 AtmWgt=  12.0000000  15.9949146  15.9949146   1.0078250  12.0000000   1.0078250   1.0078250  12.0000000   1.0078250   1.0078250
 NucSpn=           0           0           0           1           0           1           1           0           1           1
 AtZEff=  -0.0000000  -0.0000000  -0.0000000  -0.0000000  -0.0000000  -0.0000000  -0.0000000  -0.0000000  -0.0000000  -0.0000000
 NQMom=    0.0000000   0.0000000   0.0000000   0.0000000   0.0000000   0.0000000   0.0000000   0.0000000   0.0000000   0.0000000
 NMagM=    0.0000000   0.0000000   0.0000000   2.7928460   0.0000000   2.7928460   2.7928460   0.0000000   2.7928460   2.7928460
 AtZNuc=   6.0000000   8.0000000   8.0000000   1.0000000   6.0000000   1.0000000   1.0000000   6.0000000   1.0000000   1.0000000

  Atom        61          62          63          64          65          66          67          68          69          70
 IAtWgt=          12           1           1           1          12           1           1          12           1           1
 AtmWgt=  12.0000000   1.0078250   1.0078250   1.0078250  12.0000000   1.0078250   1.0078250  12.0000000   1.0078250   1.0078250
 NucSpn=           0           1           1           1           0           1           1           0           1           1
 AtZEff=  -0.0000000  -0.0000000  -0.0000000  -0.0000000  -0.0000000  -0.0000000  -0.0000000  -0.0000000  -0.0000000  -0.0000000
 NQMom=    0.0000000   0.0000000   0.0000000   0.0000000   0.0000000   0.0000000   0.0000000   0.0000000   0.0000000   0.0000000
 NMagM=    0.0000000   2.7928460   2.7928460   2.7928460   0.0000000   2.7928460   2.7928460   0.0000000   2.7928460   2.7928460
 AtZNuc=   6.0000000   1.0000000   1.0000000   1.0000000   6.0000000   1.0000000   1.0000000   6.0000000   1.0000000   1.0000000

  Atom        71          72          73          74          75          76          77
 IAtWgt=           1          12           1           1          12           1           1
 AtmWgt=   1.0078250  12.0000000   1.0078250   1.0078250  12.0000000   1.0078250   1.0078250
 NucSpn=           1           0           1           1           0           1           1
 AtZEff=  -0.0000000  -0.0000000  -0.0000000  -0.0000000  -0.0000000  -0.0000000  -0.0000000
 NQMom=    0.0000000   0.0000000   0.0000000   0.0000000   0.0000000   0.0000000   0.0000000
 NMagM=    2.7928460   0.0000000   2.7928460   2.7928460   0.0000000   2.7928460   2.7928460
 AtZNuc=   1.0000000   6.0000000   1.0000000   1.0000000   6.0000000   1.0000000   1.0000000
 Leave Link  101 at Thu Feb  7 14:38:12 2019, MaxMem=   104857600 cpu:               5.8 elap:               0.3
 (Enter /home/xinyan/g16/l103.exe)

 GradGradGradGradGradGradGradGradGradGradGradGradGradGradGradGradGradGrad
 Berny optimization.
 Initialization pass.
 Trust Radius=3.00D-01 FncErr=1.00D-07 GrdErr=1.00D-07 EigMax=2.50D+02 EigMin=1.00D-04
 Number of steps in this run=      2 maximum allowed number of steps=      2.
 GradGradGradGradGradGradGradGradGradGradGradGradGradGradGradGradGradGrad

 Leave Link  103 at Thu Feb  7 14:38:12 2019, MaxMem=   104857600 cpu:               1.6 elap:               0.1
 (Enter /home/xinyan/g16/l202.exe)
 Stoichiometry    C27H41N3O5S
 Framework group  C1[X(C27H41N3O5S)]
 Deg. of freedom   225
 Full point group                 C1      NOp   1
 Largest Abelian subgroup         C1      NOp   1
 Largest concise Abelian subgroup C1      NOp   1
                         Standard orientation:                         
 ---------------------------------------------------------------------
 Center     Atomic      Atomic             Coordinates (Angstroms)
 Number     Number       Type             X           Y           Z
 ---------------------------------------------------------------------
      1          6           0       -4.784263    0.439966   -0.521791
      2          6           0       -4.984840   -0.851589   -1.320312
      3          6           0       -3.664649   -1.317264   -1.946924
      4          6           0       -2.644394   -1.527347   -0.834231
      5          6           0       -2.399242   -0.211501   -0.051408
      6          6           0       -3.715458    0.276476    0.563677
      7          1           0       -3.797977   -2.242035   -2.518371
      8          1           0       -5.367167   -1.639435   -0.658037
      9          1           0       -5.732540   -0.703471   -2.105762
     10          1           0       -4.477487    1.240433   -1.207691
     11          1           0       -5.730463    0.750929   -0.067104
     12          1           0       -3.020718   -2.282048   -0.136913
     13          1           0       -2.082335    0.541021   -0.784791
     14          1           0       -4.056106   -0.438887    1.319741
     15          1           0       -3.525258    1.234269    1.059703
     16          1           0       -3.318646   -0.539370   -2.640950
     17          7           0       -1.326700   -2.017930   -1.289328
     18          6           0       -0.643396   -1.336959   -2.247804
     19          6           0       -0.628264   -2.811161   -0.433528
     20          6           0        0.712268   -1.388991   -2.348837
     21          1           0       -1.238404   -0.716980   -2.907104
     22          6           0        0.728922   -2.899200   -0.459573
     23          1           0       -1.216361   -3.315281    0.325780
     24          6           0        1.468567   -2.084232   -1.357869
     25          1           0        1.200659   -0.820082   -3.128331
     26          1           0        1.216503   -3.490834    0.302115
     27          7           0        2.789961   -1.977744   -1.278588
     28          6           0        3.522646   -2.429820   -0.085901
     29          1           0        3.407283   -3.508253    0.052883
     30          1           0        3.126429   -1.885309    0.783869
     31          6           0        3.515693   -0.906453   -1.975218
     32          1           0        3.760172   -1.222133   -2.996889
     33          1           0        2.884987   -0.013692   -1.997836
     34          7           0       -1.275748   -0.310598    0.867164
     35         16           0       -1.323513   -1.156313    2.260696
     36          8           0       -2.528053   -1.992425    2.250051
     37          8           0       -0.032986   -1.824131    2.448177
     38          6           0       -0.594212    2.684823    0.023805
     39          6           0       -0.122073    2.192343   -1.203224
     40          6           0       -0.904337    2.281632   -2.353166
     41          6           0       -2.175331    2.855314   -2.311647
     42          6           0       -2.657513    3.342896   -1.100135
     43          6           0       -1.869101    3.258030    0.047804
     44          1           0        0.836828    1.686511   -1.224659
     45          1           0       -0.510987    1.905559   -3.295469
     46          1           0       -2.778697    2.927808   -3.212375
     47          1           0       -3.644244    3.794787   -1.046714
     48          1           0       -2.253874    3.652800    0.986164
     49          8           0        0.711086    1.545697    1.880598
     50          1           0       -0.296641   -0.064771    0.551216
     51          6           0        1.857268    0.822535    1.247373
     52          8           0        1.462022    0.213222    0.149074
     53          8           0        2.239767   -0.059339    2.287277
     54          1           0        1.547755   -0.744886    2.304758
     55          6           0        3.053774    1.803035    1.133337
     56          1           0        2.996501    2.518412    1.962959
     57          1           0        3.952534    1.204277    1.325480
     58          6           0        0.242974    2.734045    1.306069
     59          1           0       -0.391536    3.195511    2.074098
     60          1           0        1.074776    3.435418    1.142274
     61          6           0       -1.468118    0.057685    3.550994
     62          1           0       -0.597689    0.711855    3.449754
     63          1           0       -2.400421    0.604646    3.400130
     64          1           0       -1.476233   -0.471618    4.505254
     65          6           0        3.231170    2.538685   -0.191830
     66          1           0        3.289606    1.806488   -1.005142
     67          1           0        2.361017    3.161815   -0.423190
     68          6           0        4.484342    3.412469   -0.184864
     69          1           0        4.626126    3.929557   -1.138904
     70          1           0        4.422193    4.171670    0.602136
     71          1           0        5.379753    2.811597    0.011570
     72          6           0        4.958217   -2.021278   -0.395799
     73          1           0        5.561170   -1.933570    0.509746
     74          1           0        5.426756   -2.757494   -1.058245
     75          6           0        4.765195   -0.685511   -1.117433
     76          1           0        4.548143    0.091887   -0.380433
     77          1           0        5.628453   -0.378125   -1.711380
 ---------------------------------------------------------------------
 Rotational constants (GHZ):           0.1542758           0.1010697           0.0907890
 Leave Link  202 at Thu Feb  7 14:38:12 2019, MaxMem=   104857600 cpu:               2.4 elap:               0.1
 (Enter /home/xinyan/g16/l301.exe)
 Standard basis: 6-31G(d) (6D, 7F)
 Ernie: Thresh=  0.10000D-02 Tol=  0.10000D-05 Strict=F.
 There are   626 symmetry adapted cartesian basis functions of A   symmetry.
 There are   626 symmetry adapted basis functions of A   symmetry.
   626 basis functions,  1196 primitive gaussians,   626 cartesian basis functions
   140 alpha electrons      140 beta electrons
       nuclear repulsion energy      4991.0806935263 Hartrees.
 IExCor= 4336 DFT=T Ex+Corr=M062X ExCW=0 ScaHFX=  0.540000
 ScaDFX=  1.000000  1.000000  1.000000  1.000000 ScalE2=  1.000000  1.000000
 IRadAn=      5 IRanWt=     -1 IRanGd=            0 ICorTp=0 IEmpDi=131
 NAtoms=   77 NActive=   77 NUniq=   77 SFac= 1.00D+00 NAtFMM=   60 NAOKFM=T Big=T
 Integral buffers will be    131072 words long.
 Raffenetti 2 integral format.
 Two-electron integral symmetry is turned on.
 R6Disp:  Grimme-D3 Dispersion energy=       -0.0108350782 Hartrees.
 Nuclear repulsion after empirical dispersion term =     4991.0698584481 Hartrees.
 Leave Link  301 at Thu Feb  7 14:38:13 2019, MaxMem=   104857600 cpu:               3.0 elap:               0.2
 (Enter /home/xinyan/g16/l302.exe)
 NPDir=0 NMtPBC=     1 NCelOv=     1 NCel=       1 NClECP=     1 NCelD=      1
         NCelK=      1 NCelE2=     1 NClLst=     1 CellRange=     0.0.
 One-electron integrals computed using PRISM.
 One-electron integral symmetry used in STVInt
 PrsmSu:  requested number of processors reduced to:  23 ShMem   1 Linda.
 NBasis=   626 RedAO= T EigKep=  4.44D-04  NBF=   626
 NBsUse=   626 1.00D-06 EigRej= -1.00D+00 NBFU=   626
 Precomputing XC quadrature grid using
 IXCGrd= 4 IRadAn=           5 IRanWt=          -1 IRanGd=           0 AccXCQ= 0.00D+00.
 Generated NRdTot=       0 NPtTot=           0 NUsed=           0 NTot=          32
 NSgBfM=   621   621   621   621   621 MxSgAt=    77 MxSgA2=    77.
 Leave Link  302 at Thu Feb  7 14:38:16 2019, MaxMem=   104857600 cpu:              85.7 elap:               3.7
 (Enter /home/xinyan/g16/l303.exe)
 DipDrv:  MaxL=1.
 Leave Link  303 at Thu Feb  7 14:38:16 2019, MaxMem=   104857600 cpu:               3.7 elap:               0.2
 (Enter /home/xinyan/g16/l401.exe)
 ExpMin= 1.17D-01 ExpMax= 2.19D+04 ExpMxC= 3.30D+03 IAcc=3 IRadAn=         5 AccDes= 0.00D+00
 Harris functional with IExCor= 1009 and IRadAn=       5 diagonalized for initial guess.
 HarFok:  IExCor= 1009 AccDes= 0.00D+00 IRadAn=         5 IDoV= 1 UseB2=F ITyADJ=14
 ICtDFT=  3500011 ScaDFX=  1.000000  1.000000  1.000000  1.000000
 FoFCou: FMM=F IPFlag=           0 FMFlag=      100000 FMFlg1=        2001
         NFxFlg=           0 DoJE=T BraDBF=F KetDBF=T FulRan=T
         wScrn=  0.000000 ICntrl=       500 IOpCl=  0 I1Cent=   200000004 NGrid=           0
         NMat0=    1 NMatS0=      1 NMatT0=    0 NMatD0=    1 NMtDS0=    0 NMtDT0=    0
 Petite list used in FoFCou.
 Harris En= -1990.52962227752    
 JPrj=0 DoOrth=F DoCkMO=F.
 Leave Link  401 at Thu Feb  7 14:38:21 2019, MaxMem=   104857600 cpu:             100.5 elap:               4.2
 (Enter /home/xinyan/g16/l502.exe)
 Integral symmetry usage will be decided dynamically.
 Closed shell SCF:
 Using DIIS extrapolation, IDIIS=  1040.
 NGot=   104857600 LenX=   104051656 LenY=   103659154
 Requested convergence on RMS density matrix=1.00D-08 within 128 cycles.
 Requested convergence on MAX density matrix=1.00D-06.
 Requested convergence on             energy=1.00D-06.
 No special actions if energy rises.
 Fock matrices will be formed incrementally for  20 cycles.
 Integral accuracy reduced to 1.0D-05 until final iterations.

 Cycle   1  Pass 0  IDiag  1:
 FoFJK:  IHMeth= 1 ICntrl=       0 DoSepK=F KAlg= 0 I1Cent=           0 FoldK=F
 IRaf= 990000000 NMat=       1 IRICut=       1 DoRegI=T DoRafI=F ISym2E= 0 IDoP0=0 IntGTp=1.
 FoFCou: FMM=T IPFlag=           0 FMFlag=      100000 FMFlg1=        2001
         NFxFlg=           0 DoJE=F BraDBF=F KetDBF=F FulRan=T
         wScrn=  0.000000 ICntrl=         0 IOpCl=  0 I1Cent=           0 NGrid=           0
         NMat0=    1 NMatS0=      1 NMatT0=    0 NMatD0=    1 NMtDS0=    0 NMtDT0=    0
 Symmetry not used in FoFCou.
 FMM levels:  10  Number of levels for PrismC:   9
 E= -1990.29958849257    
 DIIS: error= 2.23D-02 at cycle   1 NSaved=   1.
 NSaved= 1 IEnMin= 1 EnMin= -1990.29958849257     IErMin= 1 ErrMin= 2.23D-02
 ErrMax= 2.23D-02  0.00D+00 EMaxC= 1.00D-01 BMatC= 1.24D+00 BMatP= 1.24D+00
 IDIUse=3 WtCom= 7.77D-01 WtEn= 2.23D-01
 Coeff-Com:  0.100D+01
 Coeff-En:   0.100D+01
 Coeff:      0.100D+01
 Gap=     0.367 Goal=   None    Shift=    0.000
 GapD=    0.367 DampG=1.000 DampE=0.500 DampFc=0.5000 IDamp=-1.
 Damping current iteration by 5.00D-01
 RMSDP=3.44D-03 MaxDP=3.46D-01              OVMax= 1.96D-01

 Cycle   2  Pass 0  IDiag  1:
 RMSU=  1.71D-03    CP:  9.88D-01
 E= -1990.81235852043     Delta-E=       -0.512770027858 Rises=F Damp=T
 DIIS: error= 7.48D-03 at cycle   2 NSaved=   2.
 NSaved= 2 IEnMin= 2 EnMin= -1990.81235852043     IErMin= 2 ErrMin= 7.48D-03
 ErrMax= 7.48D-03  0.00D+00 EMaxC= 1.00D-01 BMatC= 9.28D-02 BMatP= 1.24D+00
 IDIUse=3 WtCom= 9.25D-01 WtEn= 7.48D-02
 Coeff-Com: -0.288D-01 0.103D+01
 Coeff-En:   0.000D+00 0.100D+01
 Coeff:     -0.266D-01 0.103D+01
 Gap=     0.261 Goal=   None    Shift=    0.000
 RMSDP=8.55D-04 MaxDP=7.79D-02 DE=-5.13D-01 OVMax= 1.15D-01

 Cycle   3  Pass 0  IDiag  1:
 RMSU=  8.45D-04    CP:  9.81D-01  9.46D-01
 E= -1991.31753422248     Delta-E=       -0.505175702051 Rises=F Damp=F
 DIIS: error= 6.43D-03 at cycle   3 NSaved=   3.
 NSaved= 3 IEnMin= 3 EnMin= -1991.31753422248     IErMin= 3 ErrMin= 6.43D-03
 ErrMax= 6.43D-03  0.00D+00 EMaxC= 1.00D-01 BMatC= 4.93D-02 BMatP= 9.28D-02
 IDIUse=3 WtCom= 9.36D-01 WtEn= 6.43D-02
 Coeff-Com: -0.712D-01 0.440D+00 0.631D+00
 Coeff-En:   0.000D+00 0.000D+00 0.100D+01
 Coeff:     -0.666D-01 0.412D+00 0.655D+00
 Gap=     0.245 Goal=   None    Shift=    0.000
 RMSDP=5.09D-04 MaxDP=3.71D-02 DE=-5.05D-01 OVMax= 5.99D-02

 Cycle   4  Pass 0  IDiag  1:
 RMSU=  3.37D-04    CP:  9.84D-01  1.05D+00  6.04D-01
 E= -1991.34789960616     Delta-E=       -0.030365383676 Rises=F Damp=F
 DIIS: error= 3.89D-03 at cycle   4 NSaved=   4.
 NSaved= 4 IEnMin= 4 EnMin= -1991.34789960616     IErMin= 4 ErrMin= 3.89D-03
 ErrMax= 3.89D-03  0.00D+00 EMaxC= 1.00D-01 BMatC= 1.19D-02 BMatP= 4.93D-02
 IDIUse=3 WtCom= 9.61D-01 WtEn= 3.89D-02
 Coeff-Com: -0.285D-01 0.917D-01 0.358D+00 0.579D+00
 Coeff-En:   0.000D+00 0.000D+00 0.205D+00 0.795D+00
 Coeff:     -0.274D-01 0.881D-01 0.352D+00 0.588D+00
 Gap=     0.228 Goal=   None    Shift=    0.000
 RMSDP=2.04D-04 MaxDP=1.44D-02 DE=-3.04D-02 OVMax= 2.77D-02

 Cycle   5  Pass 0  IDiag  1:
 RMSU=  8.60D-05    CP:  9.83D-01  1.04D+00  7.33D-01  5.62D-01
 E= -1991.35781741788     Delta-E=       -0.009917811723 Rises=F Damp=F
 DIIS: error= 1.00D-03 at cycle   5 NSaved=   5.
 NSaved= 5 IEnMin= 5 EnMin= -1991.35781741788     IErMin= 5 ErrMin= 1.00D-03
 ErrMax= 1.00D-03  0.00D+00 EMaxC= 1.00D-01 BMatC= 5.81D-04 BMatP= 1.19D-02
 IDIUse=3 WtCom= 9.90D-01 WtEn= 1.00D-02
 Coeff-Com: -0.938D-02 0.215D-01 0.134D+00 0.285D+00 0.569D+00
 Coeff-En:   0.000D+00 0.000D+00 0.000D+00 0.000D+00 0.100D+01
 Coeff:     -0.929D-02 0.213D-01 0.132D+00 0.283D+00 0.573D+00
 Gap=     0.228 Goal=   None    Shift=    0.000
 RMSDP=5.07D-05 MaxDP=3.71D-03 DE=-9.92D-03 OVMax= 8.77D-03

 Cycle   6  Pass 0  IDiag  1:
 RMSU=  2.71D-05    CP:  9.83D-01  1.04D+00  7.31D-01  6.35D-01  5.92D-01
 E= -1991.35832271947     Delta-E=       -0.000505301591 Rises=F Damp=F
 DIIS: error= 3.27D-04 at cycle   6 NSaved=   6.
 NSaved= 6 IEnMin= 6 EnMin= -1991.35832271947     IErMin= 6 ErrMin= 3.27D-04
 ErrMax= 3.27D-04  0.00D+00 EMaxC= 1.00D-01 BMatC= 5.80D-05 BMatP= 5.81D-04
 IDIUse=3 WtCom= 9.97D-01 WtEn= 3.27D-03
 Coeff-Com: -0.184D-02 0.194D-02 0.302D-01 0.827D-01 0.293D+00 0.594D+00
 Coeff-En:   0.000D+00 0.000D+00 0.000D+00 0.000D+00 0.153D-02 0.998D+00
 Coeff:     -0.183D-02 0.193D-02 0.301D-01 0.824D-01 0.292D+00 0.595D+00
 Gap=     0.229 Goal=   None    Shift=    0.000
 RMSDP=1.49D-05 MaxDP=8.80D-04 DE=-5.05D-04 OVMax= 2.36D-03

 Cycle   7  Pass 0  IDiag  1:
 RMSU=  9.34D-06    CP:  9.83D-01  1.04D+00  7.34D-01  6.35D-01  6.76D-01
                    CP:  6.76D-01
 E= -1991.35837737948     Delta-E=       -0.000054660008 Rises=F Damp=F
 DIIS: error= 5.12D-05 at cycle   7 NSaved=   7.
 NSaved= 7 IEnMin= 7 EnMin= -1991.35837737948     IErMin= 7 ErrMin= 5.12D-05
 ErrMax= 5.12D-05  0.00D+00 EMaxC= 1.00D-01 BMatC= 3.88D-06 BMatP= 5.80D-05
 IDIUse=1 WtCom= 1.00D+00 WtEn= 0.00D+00
 Coeff-Com:  0.166D-03-0.132D-02-0.126D-02 0.607D-02 0.719D-01 0.256D+00
 Coeff-Com:  0.669D+00
 Coeff:      0.166D-03-0.132D-02-0.126D-02 0.607D-02 0.719D-01 0.256D+00
 Coeff:      0.669D+00
 Gap=     0.228 Goal=   None    Shift=    0.000
 RMSDP=4.44D-06 MaxDP=2.40D-04 DE=-5.47D-05 OVMax= 5.13D-04

 Initial convergence to 1.0D-05 achieved.  Increase integral accuracy.
 Cycle   8  Pass 1  IDiag  1:
 E= -1991.35842055396     Delta-E=       -0.000043174480 Rises=F Damp=F
 DIIS: error= 2.14D-04 at cycle   1 NSaved=   1.
 NSaved= 1 IEnMin= 1 EnMin= -1991.35842055396     IErMin= 1 ErrMin= 2.14D-04
 ErrMax= 2.14D-04  0.00D+00 EMaxC= 1.00D-01 BMatC= 1.35D-05 BMatP= 1.35D-05
 IDIUse=3 WtCom= 9.98D-01 WtEn= 2.14D-03
 Coeff-Com:  0.100D+01
 Coeff-En:   0.100D+01
 Coeff:      0.100D+01
 Gap=     0.229 Goal=   None    Shift=    0.000
 RMSDP=4.44D-06 MaxDP=2.40D-04 DE=-4.32D-05 OVMax= 4.56D-04

 Cycle   9  Pass 1  IDiag  1:
 RMSU=  7.36D-05    CP:  1.00D+00
 E= -1991.35843261786     Delta-E=       -0.000012063903 Rises=F Damp=F
 DIIS: error= 2.16D-05 at cycle   2 NSaved=   2.
 NSaved= 2 IEnMin= 2 EnMin= -1991.35843261786     IErMin= 2 ErrMin= 2.16D-05
 ErrMax= 2.16D-05  0.00D+00 EMaxC= 1.00D-01 BMatC= 7.85D-07 BMatP= 1.35D-05
 IDIUse=1 WtCom= 1.00D+00 WtEn= 0.00D+00
 Coeff-Com:  0.678D-01 0.932D+00
 Coeff:      0.678D-01 0.932D+00
 Gap=     0.229 Goal=   None    Shift=    0.000
 RMSDP=3.85D-06 MaxDP=2.02D-04 DE=-1.21D-05 OVMax= 3.54D-04

 Cycle  10  Pass 1  IDiag  1:
 RMSU=  3.24D-06    CP:  1.00D+00  1.03D+00
 E= -1991.35843226506     Delta-E=        0.000000352805 Rises=F Damp=F
 DIIS: error= 3.56D-05 at cycle   3 NSaved=   3.
 NSaved= 3 IEnMin= 2 EnMin= -1991.35843261786     IErMin= 2 ErrMin= 2.16D-05
 ErrMax= 3.56D-05  0.00D+00 EMaxC= 1.00D-01 BMatC= 1.24D-06 BMatP= 7.85D-07
 IDIUse=1 WtCom= 1.00D+00 WtEn= 0.00D+00
 Coeff-Com: -0.144D-01 0.562D+00 0.452D+00
 Coeff:     -0.144D-01 0.562D+00 0.452D+00
 Gap=     0.229 Goal=   None    Shift=    0.000
 RMSDP=1.83D-06 MaxDP=1.21D-04 DE= 3.53D-07 OVMax= 2.20D-04

 Cycle  11  Pass 1  IDiag  1:
 RMSU=  6.21D-07    CP:  1.00D+00  1.03D+00  4.79D-01
 E= -1991.35843330081     Delta-E=       -0.000001035749 Rises=F Damp=F
 DIIS: error= 3.99D-06 at cycle   4 NSaved=   4.
 NSaved= 4 IEnMin= 4 EnMin= -1991.35843330081     IErMin= 4 ErrMin= 3.99D-06
 ErrMax= 3.99D-06  0.00D+00 EMaxC= 1.00D-01 BMatC= 1.12D-08 BMatP= 7.85D-07
 IDIUse=1 WtCom= 1.00D+00 WtEn= 0.00D+00
 Coeff-Com: -0.801D-02 0.257D+00 0.217D+00 0.534D+00
 Coeff:     -0.801D-02 0.257D+00 0.217D+00 0.534D+00
 Gap=     0.229 Goal=   None    Shift=    0.000
 RMSDP=2.18D-07 MaxDP=1.18D-05 DE=-1.04D-06 OVMax= 3.51D-05

 Cycle  12  Pass 1  IDiag  1:
 RMSU=  1.92D-07    CP:  1.00D+00  1.03D+00  4.97D-01  8.67D-01
 E= -1991.35843331130     Delta-E=       -0.000000010497 Rises=F Damp=F
 DIIS: error= 1.48D-06 at cycle   5 NSaved=   5.
 NSaved= 5 IEnMin= 5 EnMin= -1991.35843331130     IErMin= 5 ErrMin= 1.48D-06
 ErrMax= 1.48D-06  0.00D+00 EMaxC= 1.00D-01 BMatC= 9.34D-10 BMatP= 1.12D-08
 IDIUse=1 WtCom= 1.00D+00 WtEn= 0.00D+00
 Coeff-Com: -0.104D-02 0.197D-01 0.181D-01 0.214D+00 0.749D+00
 Coeff:     -0.104D-02 0.197D-01 0.181D-01 0.214D+00 0.749D+00
 Gap=     0.229 Goal=   None    Shift=    0.000
 RMSDP=8.38D-08 MaxDP=4.87D-06 DE=-1.05D-08 OVMax= 9.64D-06

 Cycle  13  Pass 1  IDiag  1:
 RMSU=  6.48D-08    CP:  1.00D+00  1.03D+00  4.98D-01  9.38D-01  8.63D-01
 E= -1991.35843331212     Delta-E=       -0.000000000812 Rises=F Damp=F
 DIIS: error= 4.86D-07 at cycle   6 NSaved=   6.
 NSaved= 6 IEnMin= 6 EnMin= -1991.35843331212     IErMin= 6 ErrMin= 4.86D-07
 ErrMax= 4.86D-07  0.00D+00 EMaxC= 1.00D-01 BMatC= 2.40D-10 BMatP= 9.34D-10
 IDIUse=1 WtCom= 1.00D+00 WtEn= 0.00D+00
 Coeff-Com:  0.743D-03-0.313D-01-0.261D-01 0.374D-01 0.411D+00 0.608D+00
 Coeff:      0.743D-03-0.313D-01-0.261D-01 0.374D-01 0.411D+00 0.608D+00
 Gap=     0.229 Goal=   None    Shift=    0.000
 RMSDP=3.52D-08 MaxDP=1.82D-06 DE=-8.12D-10 OVMax= 5.39D-06

 Cycle  14  Pass 1  IDiag  1:
 RMSU=  2.48D-08    CP:  1.00D+00  1.03D+00  4.98D-01  9.58D-01  9.46D-01
                    CP:  7.86D-01
 E= -1991.35843331229     Delta-E=       -0.000000000170 Rises=F Damp=F
 DIIS: error= 1.51D-07 at cycle   7 NSaved=   7.
 NSaved= 7 IEnMin= 7 EnMin= -1991.35843331229     IErMin= 7 ErrMin= 1.51D-07
 ErrMax= 1.51D-07  0.00D+00 EMaxC= 1.00D-01 BMatC= 1.59D-11 BMatP= 2.40D-10
 IDIUse=1 WtCom= 1.00D+00 WtEn= 0.00D+00
 Coeff-Com:  0.404D-03-0.150D-01-0.129D-01 0.493D-03 0.111D+00 0.265D+00
 Coeff-Com:  0.650D+00
 Coeff:      0.404D-03-0.150D-01-0.129D-01 0.493D-03 0.111D+00 0.265D+00
 Coeff:      0.650D+00
 Gap=     0.229 Goal=   None    Shift=    0.000
 RMSDP=9.34D-09 MaxDP=5.05D-07 DE=-1.70D-10 OVMax= 1.48D-06

 SCF Done:  E(RM062X) =  -1991.35843331     A.U. after   14 cycles
            NFock= 14  Conv=0.93D-08     -V/T= 2.0076
 KE= 1.976423210080D+03 PE=-1.463446636403D+04 EE= 5.675614862186D+03
 Leave Link  502 at Thu Feb  7 14:40:51 2019, MaxMem=   104857600 cpu:            3607.9 elap:             150.7
 (Enter /home/xinyan/g16/l601.exe)
 Copying SCF densities to generalized density rwf, IOpCl= 0 IROHF=0.

 **********************************************************************

            Population analysis using the SCF density.

 **********************************************************************

 Orbital symmetries:
       Occupied  (A) (A) (A) (A) (A) (A) (A) (A) (A) (A) (A) (A)
                 (A) (A) (A) (A) (A) (A) (A) (A) (A) (A) (A) (A)
                 (A) (A) (A) (A) (A) (A) (A) (A) (A) (A) (A) (A)
                 (A) (A) (A) (A) (A) (A) (A) (A) (A) (A) (A) (A)
                 (A) (A) (A) (A) (A) (A) (A) (A) (A) (A) (A) (A)
                 (A) (A) (A) (A) (A) (A) (A) (A) (A) (A) (A) (A)
                 (A) (A) (A) (A) (A) (A) (A) (A) (A) (A) (A) (A)
                 (A) (A) (A) (A) (A) (A) (A) (A) (A) (A) (A) (A)
                 (A) (A) (A) (A) (A) (A) (A) (A) (A) (A) (A) (A)
                 (A) (A) (A) (A) (A) (A) (A) (A) (A) (A) (A) (A)
                 (A) (A) (A) (A) (A) (A) (A) (A) (A) (A) (A) (A)
                 (A) (A) (A) (A) (A) (A) (A) (A)
       Virtual   (A) (A) (A) (A) (A) (A) (A) (A) (A) (A) (A) (A)
                 (A) (A) (A) (A) (A) (A) (A) (A) (A) (A) (A) (A)
                 (A) (A) (A) (A) (A) (A) (A) (A) (A) (A) (A) (A)
                 (A) (A) (A) (A) (A) (A) (A) (A) (A) (A) (A) (A)
                 (A) (A) (A) (A) (A) (A) (A) (A) (A) (A) (A) (A)
                 (A) (A) (A) (A) (A) (A) (A) (A) (A) (A) (A) (A)
                 (A) (A) (A) (A) (A) (A) (A) (A) (A) (A) (A) (A)
                 (A) (A) (A) (A) (A) (A) (A) (A) (A) (A) (A) (A)
                 (A) (A) (A) (A) (A) (A) (A) (A) (A) (A) (A) (A)
                 (A) (A) (A) (A) (A) (A) (A) (A) (A) (A) (A) (A)
                 (A) (A) (A) (A) (A) (A) (A) (A) (A) (A) (A) (A)
                 (A) (A) (A) (A) (A) (A) (A) (A) (A) (A) (A) (A)
                 (A) (A) (A) (A) (A) (A) (A) (A) (A) (A) (A) (A)
                 (A) (A) (A) (A) (A) (A) (A) (A) (A) (A) (A) (A)
                 (A) (A) (A) (A) (A) (A) (A) (A) (A) (A) (A) (A)
                 (A) (A) (A) (A) (A) (A) (A) (A) (A) (A) (A) (A)
                 (A) (A) (A) (A) (A) (A) (A) (A) (A) (A) (A) (A)
                 (A) (A) (A) (A) (A) (A) (A) (A) (A) (A) (A) (A)
                 (A) (A) (A) (A) (A) (A) (A) (A) (A) (A) (A) (A)
                 (A) (A) (A) (A) (A) (A) (A) (A) (A) (A) (A) (A)
                 (A) (A) (A) (A) (A) (A) (A) (A) (A) (A) (A) (A)
                 (A) (A) (A) (A) (A) (A) (A) (A) (A) (A) (A) (A)
                 (A) (A) (A) (A) (A) (A) (A) (A) (A) (A) (A) (A)
                 (A) (A) (A) (A) (A) (A) (A) (A) (A) (A) (A) (A)
                 (A) (A) (A) (A) (A) (A) (A) (A) (A) (A) (A) (A)
                 (A) (A) (A) (A) (A) (A) (A) (A) (A) (A) (A) (A)
                 (A) (A) (A) (A) (A) (A) (A) (A) (A) (A) (A) (A)
                 (A) (A) (A) (A) (A) (A) (A) (A) (A) (A) (A) (A)
                 (A) (A) (A) (A) (A) (A) (A) (A) (A) (A) (A) (A)
                 (A) (A) (A) (A) (A) (A) (A) (A) (A) (A) (A) (A)
                 (A) (A) (A) (A) (A) (A) (A) (A) (A) (A) (A) (A)
                 (A) (A) (A) (A) (A) (A) (A) (A) (A) (A) (A) (A)
                 (A) (A) (A) (A) (A) (A) (A) (A) (A) (A) (A) (A)
                 (A) (A) (A) (A) (A) (A) (A) (A) (A) (A) (A) (A)
                 (A) (A) (A) (A) (A) (A) (A) (A) (A) (A) (A) (A)
                 (A) (A) (A) (A) (A) (A) (A) (A) (A) (A) (A) (A)
                 (A) (A) (A) (A) (A) (A) (A) (A) (A) (A) (A) (A)
                 (A) (A) (A) (A) (A) (A) (A) (A) (A) (A) (A) (A)
                 (A) (A) (A) (A) (A) (A) (A) (A) (A) (A) (A) (A)
                 (A) (A) (A) (A) (A) (A) (A) (A) (A) (A) (A) (A)
                 (A) (A) (A) (A) (A) (A)
 The electronic state is 1-A.
 Alpha  occ. eigenvalues --  -90.14199 -19.61801 -19.61775 -19.58683 -19.56679
 Alpha  occ. eigenvalues --  -19.51218 -14.85176 -14.80443 -14.75799 -10.63420
 Alpha  occ. eigenvalues --  -10.62787 -10.62223 -10.62204 -10.60738 -10.59367
 Alpha  occ. eigenvalues --  -10.58431 -10.58001 -10.57956 -10.57166 -10.56902
 Alpha  occ. eigenvalues --  -10.56697 -10.55667 -10.55617 -10.55107 -10.54846
 Alpha  occ. eigenvalues --  -10.54816 -10.54800 -10.54731 -10.54580 -10.54407
 Alpha  occ. eigenvalues --  -10.54335 -10.54329 -10.53070 -10.51487 -10.51438
 Alpha  occ. eigenvalues --  -10.49666  -8.45175  -6.37392  -6.37369  -6.37212
 Alpha  occ. eigenvalues --   -1.22021  -1.13595  -1.13493  -1.10278  -1.09344
 Alpha  occ. eigenvalues --   -1.05868  -1.01758  -0.99292  -0.95752  -0.94993
 Alpha  occ. eigenvalues --   -0.93500  -0.90305  -0.88756  -0.85922  -0.85766
 Alpha  occ. eigenvalues --   -0.84828  -0.84716  -0.84225  -0.83059  -0.82709
 Alpha  occ. eigenvalues --   -0.76669  -0.76267  -0.75830  -0.74368  -0.72804
 Alpha  occ. eigenvalues --   -0.71657  -0.68327  -0.68223  -0.67940  -0.67218
 Alpha  occ. eigenvalues --   -0.66743  -0.65236  -0.64870  -0.63527  -0.60554
 Alpha  occ. eigenvalues --   -0.60403  -0.59782  -0.59045  -0.57803  -0.57601
 Alpha  occ. eigenvalues --   -0.57183  -0.56440  -0.55790  -0.55173  -0.54202
 Alpha  occ. eigenvalues --   -0.53556  -0.52664  -0.52471  -0.52447  -0.51909
 Alpha  occ. eigenvalues --   -0.51553  -0.51015  -0.50732  -0.49881  -0.49547
 Alpha  occ. eigenvalues --   -0.49165  -0.48842  -0.48208  -0.48140  -0.48007
 Alpha  occ. eigenvalues --   -0.47680  -0.47470  -0.46916  -0.46427  -0.46103
 Alpha  occ. eigenvalues --   -0.44884  -0.44741  -0.44151  -0.43863  -0.43262
 Alpha  occ. eigenvalues --   -0.42520  -0.42143  -0.41395  -0.41314  -0.41107
 Alpha  occ. eigenvalues --   -0.40904  -0.40487  -0.39990  -0.39805  -0.39300
 Alpha  occ. eigenvalues --   -0.39254  -0.39072  -0.38439  -0.37971  -0.37600
 Alpha  occ. eigenvalues --   -0.37391  -0.36746  -0.36554  -0.35753  -0.34910
 Alpha  occ. eigenvalues --   -0.34391  -0.33975  -0.31665  -0.31109  -0.29776
 Alpha  occ. eigenvalues --   -0.28881  -0.28605  -0.27653  -0.24814  -0.24380
 Alpha virt. eigenvalues --   -0.01525   0.00401   0.03545   0.03749   0.10137
 Alpha virt. eigenvalues --    0.10983   0.11650   0.12214   0.13170   0.13502
 Alpha virt. eigenvalues --    0.14219   0.14583   0.14754   0.15226   0.15599
 Alpha virt. eigenvalues --    0.16053   0.16846   0.16956   0.17205   0.17684
 Alpha virt. eigenvalues --    0.18054   0.18325   0.18477   0.18816   0.18947
 Alpha virt. eigenvalues --    0.19302   0.19746   0.19923   0.20120   0.20279
 Alpha virt. eigenvalues --    0.20645   0.20964   0.21069   0.21565   0.21657
 Alpha virt. eigenvalues --    0.22157   0.22548   0.22864   0.23412   0.23696
 Alpha virt. eigenvalues --    0.23880   0.24214   0.24555   0.24732   0.24927
 Alpha virt. eigenvalues --    0.25275   0.25498   0.25952   0.26350   0.26807
 Alpha virt. eigenvalues --    0.27084   0.27812   0.27864   0.28604   0.29002
 Alpha virt. eigenvalues --    0.29371   0.29541   0.29822   0.30786   0.30933
 Alpha virt. eigenvalues --    0.31317   0.31637   0.32187   0.32612   0.33121
 Alpha virt. eigenvalues --    0.33645   0.34574   0.35242   0.35491   0.35805
 Alpha virt. eigenvalues --    0.36538   0.37345   0.37726   0.37993   0.38847
 Alpha virt. eigenvalues --    0.39955   0.40364   0.40751   0.42823   0.43274
 Alpha virt. eigenvalues --    0.44449   0.44736   0.46986   0.48085   0.48817
 Alpha virt. eigenvalues --    0.49821   0.51196   0.52708   0.53424   0.54953
 Alpha virt. eigenvalues --    0.55151   0.55349   0.56001   0.56550   0.56891
 Alpha virt. eigenvalues --    0.57522   0.58312   0.58618   0.58762   0.59464
 Alpha virt. eigenvalues --    0.59524   0.59924   0.60372   0.60478   0.60555
 Alpha virt. eigenvalues --    0.61163   0.61422   0.62385   0.62614   0.62885
 Alpha virt. eigenvalues --    0.63768   0.64052   0.64564   0.65029   0.65582
 Alpha virt. eigenvalues --    0.66064   0.66618   0.66961   0.67453   0.67907
 Alpha virt. eigenvalues --    0.68388   0.69010   0.69088   0.69968   0.70631
 Alpha virt. eigenvalues --    0.71048   0.71459   0.71761   0.72955   0.73493
 Alpha virt. eigenvalues --    0.73590   0.74255   0.74728   0.74923   0.75756
 Alpha virt. eigenvalues --    0.76602   0.77296   0.77804   0.78668   0.79012
 Alpha virt. eigenvalues --    0.79494   0.79849   0.80216   0.80989   0.81319
 Alpha virt. eigenvalues --    0.81731   0.82086   0.82812   0.83880   0.84550
 Alpha virt. eigenvalues --    0.84859   0.85342   0.85717   0.86107   0.87122
 Alpha virt. eigenvalues --    0.87732   0.88442   0.89008   0.89440   0.89576
 Alpha virt. eigenvalues --    0.89740   0.90128   0.90559   0.91030   0.91254
 Alpha virt. eigenvalues --    0.91706   0.92270   0.92817   0.93006   0.93252
 Alpha virt. eigenvalues --    0.93634   0.94230   0.94717   0.95081   0.95348
 Alpha virt. eigenvalues --    0.95839   0.96108   0.96654   0.96744   0.97028
 Alpha virt. eigenvalues --    0.97292   0.97918   0.98104   0.98395   0.98446
 Alpha virt. eigenvalues --    0.99161   0.99583   0.99782   1.00492   1.00834
 Alpha virt. eigenvalues --    1.01336   1.01896   1.02228   1.02740   1.03034
 Alpha virt. eigenvalues --    1.03199   1.04211   1.04574   1.04633   1.05697
 Alpha virt. eigenvalues --    1.05937   1.07015   1.07635   1.08326   1.09127
 Alpha virt. eigenvalues --    1.10319   1.10725   1.11600   1.11735   1.11872
 Alpha virt. eigenvalues --    1.13380   1.13593   1.14640   1.15074   1.15599
 Alpha virt. eigenvalues --    1.16894   1.17736   1.18387   1.18591   1.18936
 Alpha virt. eigenvalues --    1.19904   1.20883   1.21113   1.21727   1.22102
 Alpha virt. eigenvalues --    1.22624   1.23628   1.24100   1.24756   1.25617
 Alpha virt. eigenvalues --    1.26014   1.27924   1.28868   1.29424   1.30515
 Alpha virt. eigenvalues --    1.31406   1.31483   1.32136   1.32619   1.33720
 Alpha virt. eigenvalues --    1.33976   1.34394   1.35137   1.36215   1.37066
 Alpha virt. eigenvalues --    1.37283   1.38382   1.39136   1.40637   1.41312
 Alpha virt. eigenvalues --    1.41780   1.42358   1.43705   1.44545   1.46241
 Alpha virt. eigenvalues --    1.47398   1.47935   1.48427   1.49180   1.49809
 Alpha virt. eigenvalues --    1.51062   1.51904   1.52444   1.52812   1.54462
 Alpha virt. eigenvalues --    1.54846   1.55091   1.55984   1.57168   1.57223
 Alpha virt. eigenvalues --    1.57468   1.58509   1.60526   1.61018   1.61233
 Alpha virt. eigenvalues --    1.61908   1.62826   1.63630   1.65591   1.67441
 Alpha virt. eigenvalues --    1.69029   1.69673   1.70225   1.72145   1.72694
 Alpha virt. eigenvalues --    1.74287   1.74746   1.75894   1.77250   1.77898
 Alpha virt. eigenvalues --    1.78541   1.79476   1.80423   1.80952   1.81893
 Alpha virt. eigenvalues --    1.84361   1.84589   1.85180   1.85807   1.85895
 Alpha virt. eigenvalues --    1.86330   1.87071   1.87598   1.87955   1.88995
 Alpha virt. eigenvalues --    1.89932   1.90070   1.90353   1.90942   1.91906
 Alpha virt. eigenvalues --    1.92702   1.93796   1.94234   1.94692   1.94829
 Alpha virt. eigenvalues --    1.95413   1.95939   1.96506   1.97085   1.97747
 Alpha virt. eigenvalues --    1.98679   1.99084   1.99277   2.00017   2.00901
 Alpha virt. eigenvalues --    2.01832   2.02170   2.02362   2.02741   2.04153
 Alpha virt. eigenvalues --    2.04535   2.06148   2.06312   2.06990   2.07400
 Alpha virt. eigenvalues --    2.07657   2.08459   2.08856   2.09250   2.09457
 Alpha virt. eigenvalues --    2.09881   2.10632   2.11807   2.11968   2.12907
 Alpha virt. eigenvalues --    2.12959   2.14244   2.14401   2.15232   2.15903
 Alpha virt. eigenvalues --    2.16270   2.16661   2.17180   2.18751   2.19057
 Alpha virt. eigenvalues --    2.19952   2.20332   2.20743   2.21507   2.22356
 Alpha virt. eigenvalues --    2.23152   2.23419   2.23642   2.23773   2.24577
 Alpha virt. eigenvalues --    2.25447   2.25871   2.26411   2.27476   2.28421
 Alpha virt. eigenvalues --    2.28985   2.30218   2.30823   2.30931   2.31548
 Alpha virt. eigenvalues --    2.32288   2.33976   2.34680   2.35182   2.35620
 Alpha virt. eigenvalues --    2.36061   2.37456   2.37607   2.38581   2.38747
 Alpha virt. eigenvalues --    2.39030   2.40338   2.40985   2.41511   2.42747
 Alpha virt. eigenvalues --    2.43328   2.44443   2.45394   2.46055   2.47004
 Alpha virt. eigenvalues --    2.49549   2.50643   2.51876   2.52281   2.52834
 Alpha virt. eigenvalues --    2.54297   2.54506   2.56062   2.57008   2.59957
 Alpha virt. eigenvalues --    2.60900   2.61841   2.62333   2.63179   2.63932
 Alpha virt. eigenvalues --    2.64671   2.64831   2.65724   2.67236   2.68317
 Alpha virt. eigenvalues --    2.68859   2.69602   2.70393   2.71696   2.72777
 Alpha virt. eigenvalues --    2.73573   2.74451   2.76249   2.76702   2.77514
 Alpha virt. eigenvalues --    2.79532   2.80236   2.80650   2.80776   2.81591
 Alpha virt. eigenvalues --    2.83480   2.85472   2.86177   2.87151   2.88374
 Alpha virt. eigenvalues --    2.89201   2.91024   2.92536   2.93957   2.96909
 Alpha virt. eigenvalues --    2.99675   3.00336   3.03193   3.05263   3.10560
 Alpha virt. eigenvalues --    3.14768   3.16345   3.23872   3.41298   3.42787
 Alpha virt. eigenvalues --    3.96609   4.02164   4.04795   4.09445   4.11011
 Alpha virt. eigenvalues --    4.15708   4.17144   4.18035   4.18698   4.19664
 Alpha virt. eigenvalues --    4.21088   4.23134   4.24477   4.26554   4.27554
 Alpha virt. eigenvalues --    4.29677   4.32651   4.33224   4.34641   4.35149
 Alpha virt. eigenvalues --    4.40024   4.40851   4.41909   4.43765   4.47476
 Alpha virt. eigenvalues --    4.49851   4.55728   4.58175   4.59257   4.61482
 Alpha virt. eigenvalues --    4.63933   4.66133   4.73737   4.75617   4.76846
 Alpha virt. eigenvalues --    4.80239
          Condensed to atoms (all electrons):
 Mulliken charges:
               1
     1  C   -0.306275
     2  C   -0.307147
     3  C   -0.309212
     4  C   -0.060180
     5  C    0.056570
     6  C   -0.311455
     7  H    0.174011
     8  H    0.162846
     9  H    0.165534
    10  H    0.151026
    11  H    0.163378
    12  H    0.209045
    13  H    0.173080
    14  H    0.193120
    15  H    0.163577
    16  H    0.154275
    17  N   -0.430604
    18  C    0.067341
    19  C    0.063824
    20  C   -0.201721
    21  H    0.206422
    22  C   -0.209196
    23  H    0.245190
    24  C    0.445899
    25  H    0.192069
    26  H    0.211517
    27  N   -0.525993
    28  C   -0.170858
    29  H    0.169754
    30  H    0.229475
    31  C   -0.154786
    32  H    0.165583
    33  H    0.205889
    34  N   -0.815562
    35  S    1.253285
    36  O   -0.611868
    37  O   -0.606108
    38  C    0.084495
    39  C   -0.184392
    40  C   -0.189802
    41  C   -0.171208
    42  C   -0.163733
    43  C   -0.212084
    44  H    0.211678
    45  H    0.140574
    46  H    0.154931
    47  H    0.158610
    48  H    0.152480
    49  O   -0.550365
    50  H    0.448263
    51  C    0.724421
    52  O   -0.722063
    53  O   -0.718127
    54  H    0.444445
    55  C   -0.338564
    56  H    0.148784
    57  H    0.151189
    58  C   -0.091358
    59  H    0.139929
    60  H    0.147879
    61  C   -0.663320
    62  H    0.273710
    63  H    0.196351
    64  H    0.217660
    65  C   -0.292687
    66  H    0.135622
    67  H    0.146267
    68  C   -0.473317
    69  H    0.148874
    70  H    0.154489
    71  H    0.145075
    72  C   -0.331917
    73  H    0.187116
    74  H    0.162928
    75  C   -0.343163
    76  H    0.197542
    77  H    0.171045
 Sum of Mulliken charges =  -0.00000
 Mulliken charges with hydrogens summed into heavy atoms:
               1
     1  C    0.008128
     2  C    0.021233
     3  C    0.019073
     4  C    0.148865
     5  C    0.229650
     6  C    0.045242
    17  N   -0.430604
    18  C    0.273763
    19  C    0.309014
    20  C   -0.009652
    22  C    0.002321
    24  C    0.445899
    27  N   -0.525993
    28  C    0.228371
    31  C    0.216686
    34  N   -0.367300
    35  S    1.253285
    36  O   -0.611868
    37  O   -0.606108
    38  C    0.084495
    39  C    0.027285
    40  C   -0.049228
    41  C   -0.016277
    42  C   -0.005123
    43  C   -0.059605
    49  O   -0.550365
    51  C    0.724421
    52  O   -0.722063
    53  O   -0.273682
    55  C   -0.038591
    58  C    0.196450
    61  C    0.024402
    65  C   -0.010798
    68  C   -0.024879
    72  C    0.018127
    75  C    0.025424
 Electronic spatial extent (au):  <R**2>=          14334.1029
 Charge=             -0.0000 electrons
 Dipole moment (field-independent basis, Debye):
    X=             -2.5828    Y=             -1.9296    Z=             -6.3437  Tot=              7.1160
 Quadrupole moment (field-independent basis, Debye-Ang):
   XX=           -205.7967   YY=           -222.7208   ZZ=           -219.9208
   XY=            -12.4147   XZ=             -5.3038   YZ=             10.0509
 Traceless Quadrupole moment (field-independent basis, Debye-Ang):
   XX=             10.3494   YY=             -6.5747   ZZ=             -3.7747
   XY=            -12.4147   XZ=             -5.3038   YZ=             10.0509
 Octapole moment (field-independent basis, Debye-Ang**2):
  XXX=             14.0411  YYY=            -51.8046  ZZZ=             11.3993  XYY=              9.6737
  XXY=            -24.6333  XXZ=            -38.6242  XZZ=            -24.1936  YZZ=             13.1305
  YYZ=             18.1575  XYZ=            -19.2324
 Hexadecapole moment (field-independent basis, Debye-Ang**3):
 XXXX=          -9831.1248 YYYY=          -5436.6940 ZZZZ=          -3544.6706 XXXY=           -204.1708
 XXXZ=            -10.1923 YYYX=            -71.9676 YYYZ=             55.9257 ZZZX=           -105.1290
 ZZZY=             -6.5097 XXYY=          -2555.3668 XXZZ=          -2317.6061 YYZZ=          -1600.1299
 XXYZ=             46.4902 YYXZ=             50.6784 ZZXY=            -51.3721
 N-N= 4.991069858448D+03 E-N=-1.463446640578D+04  KE= 1.976423210080D+03
 No NMR shielding tensors so no spin-rotation constants.
 Leave Link  601 at Thu Feb  7 14:40:52 2019, MaxMem=   104857600 cpu:              22.2 elap:               1.0
 (Enter /home/xinyan/g16/l701.exe)
 ... and contract with generalized density number  0.
 Compute integral first derivatives.
 R6Disp: Adding Grimme-D3 dispersion energy 1st derivatives to the gradient.
 Leave Link  701 at Thu Feb  7 14:40:53 2019, MaxMem=   104857600 cpu:              21.8 elap:               1.0
 (Enter /home/xinyan/g16/l702.exe)
 L702 exits ... SP integral derivatives will be done elsewhere.
 Leave Link  702 at Thu Feb  7 14:40:53 2019, MaxMem=   104857600 cpu:               1.4 elap:               0.1
 (Enter /home/xinyan/g16/l703.exe)
 Integral derivatives from FoFJK, PRISM(SPDF).
 Compute integral first derivatives, UseDBF=F ICtDFT=           0.
 Calling FoFJK, ICntrl=      2127 FMM=T ISym2X=0 I1Cent= 0 IOpClX= 0 NMat=1 NMatS=1 NMatT=0.
 FoFJK:  IHMeth= 1 ICntrl=    2127 DoSepK=F KAlg= 0 I1Cent=           0 FoldK=F
 IRaf=         0 NMat=       1 IRICut=       1 DoRegI=T DoRafI=F ISym2E= 0 IDoP0=0 IntGTp=1.
 FoFCou: FMM=T IPFlag=           0 FMFlag=      100000 FMFlg1=        2001
         NFxFlg=           0 DoJE=F BraDBF=F KetDBF=F FulRan=T
         wScrn=  0.000000 ICntrl=      2127 IOpCl=  0 I1Cent=           0 NGrid=           0
         NMat0=    1 NMatS0=      1 NMatT0=    0 NMatD0=    1 NMtDS0=    0 NMtDT0=    0
 Symmetry not used in FoFCou.
 FMM levels:  10  Number of levels for PrismC:   9
 Leave Link  703 at Thu Feb  7 14:41:30 2019, MaxMem=   104857600 cpu:             849.5 elap:              36.4
 (Enter /home/xinyan/g16/l716.exe)
 Dipole        =-1.01613568D+00-7.59178377D-01-2.49580786D+00
 ***** Axes restored to original set *****
 -------------------------------------------------------------------
 Center     Atomic                   Forces (Hartrees/Bohr)
 Number     Number              X              Y              Z
 -------------------------------------------------------------------
      1        6           0.000003972   -0.000018849   -0.000005042
      2        6           0.000020361    0.000000732    0.000014165
      3        6           0.000020915    0.000011679    0.000001040
      4        6           0.000007645    0.000012184   -0.000025606
      5        6           0.000048525   -0.000003828    0.000004549
      6        6          -0.000013672   -0.000011245    0.000002702
      7        1           0.000012517    0.000009151   -0.000033006
      8        1           0.000005247    0.000001177   -0.000038471
      9        1           0.000013858    0.000007510   -0.000021329
     10        1           0.000011514    0.000036275   -0.000025893
     11        1           0.000001335   -0.000012866   -0.000008392
     12        1           0.000001766   -0.000047189    0.000027533
     13        1          -0.000004316    0.000006108   -0.000012534
     14        1          -0.000003156   -0.000032840   -0.000000446
     15        1           0.000013719   -0.000014186    0.000000501
     16        1           0.000009191    0.000010382   -0.000022422
     17        7           0.000015419    0.000020929   -0.000022126
     18        6           0.000004530   -0.000018850   -0.000010309
     19        6          -0.000015453    0.000017381   -0.000001554
     20        6           0.000011593   -0.000006338   -0.000002946
     21        1           0.000012814    0.000001812   -0.000012796
     22        6           0.000025463    0.000003697    0.000026476
     23        1          -0.000000018    0.000000099   -0.000004511
     24        6           0.000002298   -0.000021192    0.000006552
     25        1           0.000018051    0.000008224   -0.000006950
     26        1           0.000013435    0.000019492    0.000018162
     27        7           0.000015336    0.000022745   -0.000000519
     28        6           0.000006447    0.000027834    0.000038435
     29        1           0.000007260    0.000031868    0.000039983
     30        1           0.000012421    0.000040222    0.000016293
     31        6           0.000004491   -0.000001080   -0.000015470
     32        1           0.000016595   -0.000010507    0.000010125
     33        1          -0.000001489    0.000038093    0.000029548
     34        7          -0.000044652    0.000012214    0.000049871
     35       16           0.000056075    0.000016567   -0.000208029
     36        8          -0.000009844   -0.000041073   -0.000025602
     37        8           0.000012418   -0.000023812    0.000007583
     38        6           0.000009018    0.000019239    0.000007950
     39        6          -0.000020201    0.000033408    0.000015978
     40        6          -0.000024423    0.000026795    0.000031474
     41        6          -0.000015548    0.000011656    0.000039845
     42        6          -0.000008164   -0.000005304    0.000048899
     43        6           0.000006608    0.000002271    0.000014728
     44        1          -0.000032245    0.000016446   -0.000013530
     45        1          -0.000027081    0.000055144    0.000025907
     46        1          -0.000023898    0.000028527    0.000052543
     47        1          -0.000028968    0.000006068    0.000054900
     48        1          -0.000026895   -0.000007099    0.000053034
     49        8          -0.000320268    0.000270147    0.000244380
     50        1           0.000014407   -0.000048513    0.000113979
     51        6           0.000280505   -0.000261848   -0.000157982
     52        8          -0.000040389   -0.000049522   -0.000112568
     53        8           0.000088354    0.000077880   -0.000011848
     54        1          -0.000091779   -0.000032803    0.000037235
     55        6          -0.000241303   -0.000169627   -0.000362626
     56        1           0.000069676    0.000335940    0.000331393
     57        1           0.000087017   -0.000101978    0.000009013
     58        6          -0.000047262    0.000050665   -0.000043486
     59        1           0.000015988   -0.000009951    0.000032358
     60        1          -0.000000652   -0.000027754    0.000014242
     61        6          -0.000024664    0.000005054    0.000022683
     62        1          -0.000004859    0.000003822   -0.000011847
     63        1          -0.000045255   -0.000012580   -0.000014004
     64        1          -0.000020111   -0.000003877   -0.000007879
     65        6           0.000095281   -0.000125015    0.000061756
     66        1          -0.000084250   -0.000099633   -0.000094642
     67        1          -0.000136201    0.000175915    0.000010807
     68        6           0.000009295   -0.000180765   -0.000173895
     69        1           0.000028648   -0.000092224   -0.000079894
     70        1           0.000160146    0.000036493    0.000071782
     71        1           0.000044302   -0.000170459   -0.000115853
     72        6           0.000007769    0.000040782    0.000022279
     73        1          -0.000007480    0.000050694    0.000029149
     74        1           0.000011001    0.000022515    0.000052814
     75        6          -0.000014513   -0.000025046    0.000017367
     76        1           0.000035494    0.000057199   -0.000008001
     77        1           0.000010291    0.000004819    0.000001992
 -------------------------------------------------------------------
 Cartesian Forces:  Max     0.000362626 RMS     0.000075908
 Z-matrix is all fixed cartesians, so copy forces.
 Leave Link  716 at Thu Feb  7 14:41:30 2019, MaxMem=   104857600 cpu:               1.6 elap:               0.1
 (Enter /home/xinyan/g16/l103.exe)

 GradGradGradGradGradGradGradGradGradGradGradGradGradGradGradGradGradGrad
 Berny optimization.
 Search for a local minimum.
 Step number   1 out of a maximum of    2
 All quantities printed in internal units (Hartrees-Bohrs-Radians)
 Second derivative matrix not updated -- first step.
 ITU=  0
     Eigenvalues ---    0.00000   0.00000   0.00000   0.00000   0.00000
     Eigenvalues ---    0.00000   0.00006   0.00012   0.00018   0.00021
     Eigenvalues ---    0.00037   0.00038   0.00084   0.00095   0.00115
     Eigenvalues ---    0.00136   0.00141   0.00204   0.00234   0.00294
     Eigenvalues ---    0.00392   0.00406   0.00451   0.00498   0.00591
     Eigenvalues ---    0.00607   0.00617   0.00692   0.00710   0.00848
     Eigenvalues ---    0.00964   0.01123   0.01162   0.01472   0.01655
     Eigenvalues ---    0.01679   0.01888   0.01935   0.02043   0.02158
     Eigenvalues ---    0.02295   0.02305   0.02443   0.02534   0.02875
     Eigenvalues ---    0.02969   0.03071   0.03111   0.03220   0.03449
     Eigenvalues ---    0.03547   0.03715   0.03902   0.04200   0.04322
     Eigenvalues ---    0.04368   0.04804   0.04843   0.04872   0.04925
     Eigenvalues ---    0.05025   0.05069   0.05112   0.05113   0.05163
     Eigenvalues ---    0.05186   0.05264   0.05373   0.05469   0.05600
     Eigenvalues ---    0.05645   0.05667   0.05707   0.05743   0.05791
     Eigenvalues ---    0.06018   0.06155   0.06283   0.06513   0.06567
     Eigenvalues ---    0.06834   0.06851   0.06972   0.07028   0.07086
     Eigenvalues ---    0.07152   0.07247   0.07267   0.07329   0.07383
     Eigenvalues ---    0.07646   0.07801   0.07861   0.07956   0.08084
     Eigenvalues ---    0.08467   0.08557   0.08816   0.09024   0.09718
     Eigenvalues ---    0.09765   0.10161   0.10462   0.11256   0.11513
     Eigenvalues ---    0.11840   0.12129   0.12609   0.12853   0.12901
     Eigenvalues ---    0.12948   0.13028   0.13358   0.13682   0.13936
     Eigenvalues ---    0.14131   0.14437   0.14651   0.15648   0.15769
     Eigenvalues ---    0.16033   0.16110   0.16886   0.16948   0.16978
     Eigenvalues ---    0.17252   0.17303   0.17767   0.17881   0.19572
     Eigenvalues ---    0.19695   0.20337   0.20622   0.21585   0.21707
     Eigenvalues ---    0.23067   0.23377   0.23826   0.24802   0.26387
     Eigenvalues ---    0.27462   0.28632   0.29533   0.30047   0.30652
     Eigenvalues ---    0.31429   0.32266   0.34024   0.34765   0.36307
     Eigenvalues ---    0.36712   0.39432   0.39993   0.41241   0.43087
     Eigenvalues ---    0.43541   0.44549   0.48125   0.49026   0.50145
     Eigenvalues ---    0.52935   0.56799   0.57614   0.60213   0.64857
     Eigenvalues ---    0.65372   0.66367   0.67450   0.68234   0.68772
     Eigenvalues ---    0.70493   0.77698   0.78179   0.78421   0.81192
     Eigenvalues ---    0.83009   0.83336   0.85534   0.86638   0.87291
     Eigenvalues ---    0.87945   0.88679   0.90620   0.91308   0.93996
     Eigenvalues ---    0.94456   0.94785   0.94973   0.95650   0.96343
     Eigenvalues ---    0.97881   0.97954   0.99573   1.00377   1.00628
     Eigenvalues ---    1.00785   1.03897   1.04286   1.04608   1.06124
     Eigenvalues ---    1.06328   1.06785   1.07213   1.08795   1.09114
     Eigenvalues ---    1.13033   1.15705   1.15753   1.16917   1.19862
     Eigenvalues ---    1.21197   1.24135   1.26107   1.27781   1.37140
     Eigenvalues ---    1.47243   1.53547   1.57084   1.58240   1.58855
     Eigenvalues ---    1.59579   1.67034   1.72959   1.84178   2.34188
 Eigenvalue     1 is   2.22D-16 Eigenvector:
                          Y59       Y48       Y49       Y54       Y58
   1                    0.13549   0.13549   0.13549   0.13549   0.13549
                          Y53       Y43       Y47       Y60       Y56
   1                    0.13549   0.13549   0.13549   0.13549   0.13549
 Eigenvalue     2 is   5.43D-08 Eigenvector:
                          X45       Y46       X46       X40       X52
   1                    0.15967  -0.15487   0.14291   0.14050   0.13737
                          Y73       X44       Y47       X41       Y41
   1                    0.13445   0.13348  -0.13303   0.13117  -0.13082
 Eigenvalue     3 is   6.74D-08 Eigenvector:
                          Y46       Z47       X54       Z46       X53
   1                    0.20251  -0.18702  -0.18558  -0.17392  -0.16724
                          Y47       Y41       Z42       Z41       Z69
   1                    0.16617   0.16076  -0.16053  -0.15334   0.14588
 Eigenvalue     4 is   1.59D-07 Eigenvector:
                          Z77       Z76       Z57       Z71       Z53
   1                    0.18607   0.18040  -0.17207  -0.16843  -0.16228
                          Z54       Z75       Y64       Z33       Z66
   1                   -0.16200   0.16029  -0.15425   0.14944  -0.14486
 Eigenvalue     5 is   2.51D-07 Eigenvector:
                          Z47       Y46       Y64       Y9        Y47
   1                    0.18159   0.17599   0.16124  -0.15858   0.14933
                          Z42       Z48       Y7        Y71       Y62
   1                    0.14551   0.14248  -0.14122  -0.13982   0.13909
 Eigenvalue     6 is   4.65D-07 Eigenvector:
                          Y69       Z54       Y48       Y59       Y71
   1                    0.25587  -0.24481  -0.23255  -0.23041   0.20343
                          Y66       Y45       Z53       Z70       Y68
   1                    0.18606   0.18595  -0.18187   0.18029   0.17540
 Eigenvalue     7 is   6.46D-05 Eigenvector:
                          X69       X45       X46       X70       Z70
   1                    0.27136  -0.24030  -0.22664   0.22140   0.21386
                          Z69       X68       X67       X40       X41
   1                    0.21074   0.20701   0.20312  -0.18467  -0.17727
 Quadratic step=3.248D+00 exceeds max=3.000D-01 adjusted using Lamda=-1.166D-03.
 Angle between NR and scaled steps=  20.63 degrees.
 Angle between quadratic step and forces=  68.47 degrees.
 Linear search not attempted -- first point.
 B after Tr=    -0.000694    0.000739    0.000914
         Rot=    1.000000   -0.000131    0.000066   -0.000112 Ang=  -0.02 deg.
 Variable       Old X    -DE/DX   Delta X   Delta X   Delta X     New X
                                 (Linear)    (Quad)   (Total)
    X1       -9.25423   0.00000   0.00000   0.00586   0.00517  -9.24907
    Y1        0.46663  -0.00002   0.00000  -0.00230  -0.00341   0.46322
    Z1       -0.81459  -0.00001   0.00000  -0.00935  -0.00954  -0.82413
    X2       -9.61084   0.00002   0.00000   0.00924   0.00930  -9.60155
    Y2       -1.93393   0.00000   0.00000   0.00007  -0.00071  -1.93464
    Z2       -2.39186   0.00001   0.00000  -0.01380  -0.01467  -2.40653
    X3       -7.09585   0.00002   0.00000   0.01147   0.01188  -7.08397
    Y3       -2.79268   0.00001   0.00000   0.00139   0.00147  -2.79120
    Z3       -3.54855   0.00000   0.00000  -0.01011  -0.01087  -3.55941
    X4       -5.21096   0.00001   0.00000   0.00745   0.00767  -5.20329
    Y4       -3.24933   0.00001   0.00000  -0.00073  -0.00079  -3.25012
    Z4       -1.41905  -0.00003   0.00000  -0.00695  -0.00757  -1.42663
    X5       -4.76940   0.00005   0.00000   0.00476   0.00423  -4.76518
    Y5       -0.80243  -0.00000   0.00000  -0.00188  -0.00224  -0.80468
    Z5        0.13139   0.00000   0.00000  -0.00448  -0.00441   0.12698
    X6       -7.27633  -0.00001   0.00000   0.00265   0.00177  -7.27456
    Y6        0.09896  -0.00001   0.00000  -0.00494  -0.00616   0.09280
    Z6        1.26751   0.00000   0.00000  -0.00679  -0.00681   1.26070
    X7       -7.33176   0.00001   0.00000   0.01355   0.01449  -7.31727
    Y7       -4.51159   0.00001   0.00000   0.00271   0.00304  -4.50855
    Z7       -4.67694  -0.00003   0.00000  -0.01258  -0.01382  -4.69076
    X8      -10.36245   0.00001   0.00000   0.00662   0.00686 -10.35559
    Y8       -3.45121   0.00000   0.00000  -0.00174  -0.00301  -3.45422
    Z8       -1.19278  -0.00004   0.00000  -0.01780  -0.01916  -1.21194
    X9      -10.99335   0.00001   0.00000   0.01230   0.01249 -10.98086
    Y9       -1.61173   0.00001   0.00000   0.00247   0.00177  -1.60996
    Z9       -3.89611  -0.00002   0.00000  -0.01611  -0.01707  -3.91318
   X10       -8.64442   0.00001   0.00000   0.00708   0.00620  -8.63822
   Y10        2.00938   0.00004   0.00000   0.00023  -0.00043   2.00895
   Z10       -2.06050  -0.00003   0.00000  -0.00583  -0.00553  -2.06603
   X11      -11.05711   0.00000   0.00000   0.00427   0.00334 -11.05376
   Y11        1.03878  -0.00001   0.00000  -0.00458  -0.00633   1.03246
   Z11        0.02389  -0.00001   0.00000  -0.01118  -0.01146   0.01243
   X12       -5.95233   0.00000   0.00000   0.00482   0.00520  -5.94713
   Y12       -4.70570  -0.00005   0.00000  -0.00134  -0.00189  -4.70759
   Z12       -0.15197   0.00003   0.00000  -0.00890  -0.01000  -0.16198
   X13       -4.13895  -0.00000   0.00000   0.00563   0.00495  -4.13400
   Y13        0.65194   0.00001   0.00000  -0.00011   0.00002   0.65196
   Z13       -1.20612  -0.00001   0.00000  -0.00218  -0.00164  -1.20776
   X14       -7.95227  -0.00000   0.00000   0.00117   0.00041  -7.95186
   Y14       -1.28613  -0.00003   0.00000  -0.00773  -0.00946  -1.29559
   Z14        2.64875  -0.00000   0.00000  -0.01020  -0.01068   2.63808
   X15       -6.92997   0.00001   0.00000   0.00054  -0.00088  -6.93084
   Y15        1.88347  -0.00001   0.00000  -0.00654  -0.00795   1.87552
   Z15        2.25715   0.00000   0.00000  -0.00316  -0.00267   2.25447
   X16       -6.41175   0.00001   0.00000   0.01365   0.01388  -6.39787
   Y16       -1.29244   0.00001   0.00000   0.00282   0.00339  -1.28905
   Z16       -4.80943  -0.00002   0.00000  -0.00727  -0.00754  -4.81697
   X17       -2.70722   0.00002   0.00000   0.00895   0.00949  -2.69773
   Y17       -4.16327   0.00002   0.00000  -0.00105  -0.00033  -4.16360
   Z17       -2.25306  -0.00002   0.00000  -0.00187  -0.00240  -2.25546
   X18       -1.37653   0.00000   0.00000   0.01062   0.01109  -1.36544
   Y18       -2.83582  -0.00002   0.00000  -0.00483  -0.00335  -2.83917
   Z18       -4.00552  -0.00001   0.00000  -0.00344  -0.00345  -4.00897
   X19       -1.42414  -0.00002   0.00000   0.00757   0.00824  -1.41589
   Y19       -5.70718   0.00002   0.00000   0.00437   0.00496  -5.70222
   Z19       -0.64855  -0.00000   0.00000   0.00443   0.00366  -0.64489
   X20        1.18826   0.00001   0.00000   0.01094   0.01146   1.19972
   Y20       -2.93839  -0.00001   0.00000  -0.00319  -0.00109  -2.93948
   Z20       -4.14846  -0.00000   0.00000   0.00108   0.00138  -4.14708
   X21       -2.47254   0.00001   0.00000   0.01167   0.01204  -2.46050
   Y21       -1.62925   0.00000   0.00000  -0.00906  -0.00750  -1.63674
   Z21       -5.24331  -0.00001   0.00000  -0.00853  -0.00837  -5.25168
   X22        1.14053   0.00003   0.00000   0.00781   0.00852   1.14905
   Y22       -5.88136   0.00000   0.00000   0.00754   0.00871  -5.87265
   Z22       -0.65152   0.00003   0.00000   0.01016   0.00969  -0.64183
   X23       -2.56649  -0.00000   0.00000   0.00593   0.00664  -2.55986
   Y23       -6.69171   0.00000   0.00000   0.00692   0.00689  -6.68482
   Z23        0.73970  -0.00000   0.00000   0.00490   0.00372   0.74342
   X24        2.57619   0.00000   0.00000   0.00899   0.00957   2.58575
   Y24       -4.30400  -0.00002   0.00000   0.00430   0.00622  -4.29778
   Z24       -2.28183   0.00001   0.00000   0.00807   0.00820  -2.27363
   X25        2.14337   0.00002   0.00000   0.01236   0.01282   2.15618
   Y25       -1.82984   0.00001   0.00000  -0.00643  -0.00375  -1.83359
   Z25       -5.57545  -0.00001   0.00000  -0.00055   0.00017  -5.57527
   X26        2.02991   0.00001   0.00000   0.00648   0.00725   2.03716
   Y26       -7.03853   0.00002   0.00000   0.01296   0.01394  -7.02459
   Z26        0.77702   0.00002   0.00000   0.01539   0.01473   0.79175
   X27        5.07042   0.00002   0.00000   0.00833   0.00883   5.07925
   Y27       -4.11546   0.00002   0.00000   0.00848   0.01089  -4.10457
   Z27       -2.07791  -0.00000   0.00000   0.01248   0.01299  -2.06491
   X28        6.40761   0.00001   0.00000   0.00468   0.00508   6.41269
   Y28       -5.03115   0.00003   0.00000   0.02090   0.02302  -5.00813
   Z28        0.18045   0.00004   0.00000   0.01973   0.02018   0.20063
   X29        6.17825   0.00001   0.00000   0.00587   0.00670   6.18496
   Y29       -7.07427   0.00003   0.00000   0.02179   0.02381  -7.05045
   Z29        0.38685   0.00004   0.00000   0.02981   0.02969   0.41654
   X30        5.62970   0.00001   0.00000   0.00077   0.00073   5.63044
   Y30       -4.04124   0.00004   0.00000   0.02879   0.03031  -4.01093
   Z30        1.83449   0.00002   0.00000   0.01316   0.01377   1.84826
   X31        6.47375   0.00000   0.00000   0.00831   0.00851   6.48226
   Y31       -2.06339  -0.00000   0.00000   0.00442   0.00748  -2.05591
   Z31       -3.31560  -0.00002   0.00000   0.00581   0.00705  -3.30855
   X32        6.97196   0.00002   0.00000   0.01077   0.01136   6.98332
   Y32       -2.61277  -0.00001   0.00000  -0.00344   0.00024  -2.61253
   Z32       -5.25127   0.00001   0.00000   0.00866   0.00982  -5.24145
   X33        5.28812  -0.00000   0.00000   0.00728   0.00711   5.29523
   Y33       -0.37156   0.00004   0.00000   0.00370   0.00650  -0.36505
   Z33       -3.33916   0.00003   0.00000  -0.00230  -0.00078  -3.33995
   X34       -2.68158  -0.00004   0.00000   0.00187   0.00116  -2.68042
   Y34       -1.04088   0.00001   0.00000  -0.00255  -0.00291  -1.04379
   Z34        1.90337   0.00005   0.00000  -0.00126  -0.00097   1.90240
   X35       -2.82869   0.00006   0.00000  -0.00125  -0.00194  -2.83063
   Y35       -2.70452   0.00002   0.00000  -0.00728  -0.00835  -2.71287
   Z35        4.49330  -0.00021   0.00000  -0.00497  -0.00514   4.48815
   X36       -5.10891  -0.00001   0.00000   0.00187   0.00156  -5.10736
   Y36       -4.27545  -0.00004   0.00000  -0.01132  -0.01287  -4.28832
   Z36        4.38855  -0.00003   0.00000  -0.01304  -0.01393   4.37462
   X37       -0.40128   0.00001   0.00000   0.00020  -0.00025  -0.40153
   Y37       -3.98367  -0.00002   0.00000  -0.00339  -0.00401  -3.98769
   Z37        4.86349   0.00001   0.00000  -0.00085  -0.00103   4.86246
   X38       -1.34518   0.00001   0.00000  -0.00716  -0.00897  -1.35415
   Y38        4.65337   0.00002   0.00000   0.01478   0.01508   4.66846
   Z38        0.47869   0.00001   0.00000   0.01340   0.01535   0.49404
   X39       -0.41020  -0.00002   0.00000  -0.01242  -0.01373  -0.42393
   Y39        3.77824   0.00003   0.00000   0.02063   0.02176   3.80000
   Z39       -1.84483   0.00002   0.00000   0.00908   0.01093  -1.83390
   X40       -1.84475  -0.00002   0.00000  -0.01975  -0.02081  -1.86556
   Y40        4.00688   0.00003   0.00000   0.02101   0.02239   4.02927
   Z40       -4.04160   0.00003   0.00000   0.01399   0.01572  -4.02588
   X41       -4.24434  -0.00002   0.00000  -0.02248  -0.02379  -4.26814
   Y41        5.09718   0.00001   0.00000   0.01436   0.01518   5.11235
   Z41       -3.98303   0.00004   0.00000   0.02354   0.02523  -3.95780
   X42       -5.19775  -0.00001   0.00000  -0.01780  -0.01961  -5.21736
   Y42        5.96386  -0.00001   0.00000   0.00731   0.00731   5.97117
   Z42       -1.68943   0.00005   0.00000   0.02813   0.02991  -1.65952
   X43       -3.75148   0.00001   0.00000  -0.01013  -0.01219  -3.76367
   Y43        5.74363   0.00000   0.00000   0.00783   0.00759   5.75122
   Z43        0.50399   0.00001   0.00000   0.02305   0.02497   0.52896
   X44        1.39938  -0.00003   0.00000  -0.01021  -0.01129   1.38809
   Y44        2.81726   0.00002   0.00000   0.02509   0.02663   2.84389
   Z44       -1.87381  -0.00001   0.00000   0.00153   0.00337  -1.87044
   X45       -1.06858  -0.00003   0.00000  -0.02332  -0.02400  -1.09258
   Y45        3.33864   0.00006   0.00000   0.02680   0.02882   3.36746
   Z45       -5.82470   0.00003   0.00000   0.01032   0.01197  -5.81274
   X46       -5.35029  -0.00002   0.00000  -0.02823  -0.02936  -5.37965
   Y46        5.28103   0.00003   0.00000   0.01475   0.01577   5.29680
   Z46       -5.70325   0.00005   0.00000   0.02735   0.02894  -5.67431
   X47       -7.06142  -0.00003   0.00000  -0.02006  -0.02208  -7.08349
   Y47        6.82161   0.00001   0.00000   0.00167   0.00123   6.82284
   Z47       -1.60364   0.00005   0.00000   0.03566   0.03742  -1.56622
   X48       -4.51119  -0.00003   0.00000  -0.00665  -0.00910  -4.52029
   Y48        6.44733  -0.00001   0.00000   0.00234   0.00146   6.44879
   Z48        2.28086   0.00005   0.00000   0.02677   0.02877   2.30963
   X49        1.04513  -0.00032   0.00000  -0.00240  -0.00416   1.04097
   Y49        2.40434   0.00027   0.00000   0.01608   0.01600   2.42034
   Z49        3.97988   0.00024   0.00000   0.01053   0.01222   3.99209
   X50       -0.81850   0.00001   0.00000   0.00277   0.00202  -0.81648
   Y50       -0.56801  -0.00005   0.00000   0.00028   0.00048  -0.56754
   Z50        1.35473   0.00011   0.00000   0.00452   0.00518   1.35991
   X51        3.23013   0.00028   0.00000  -0.01583  -0.01713   3.21300
   Y51        1.06065  -0.00026   0.00000   0.00062   0.00135   1.06200
   Z51        2.79196  -0.00016   0.00000   0.00032   0.00194   2.79389
   X52        2.52084  -0.00004   0.00000  -0.03434  -0.03511   2.48573
   Y52       -0.03551  -0.00005   0.00000  -0.00078   0.00034  -0.03517
   Z52        0.67378  -0.00011   0.00000   0.00701   0.00824   0.68202
   X53        3.90892   0.00009   0.00000  -0.01390  -0.01507   3.89384
   Y53       -0.65736   0.00008   0.00000   0.00173   0.00210  -0.65526
   Z53        4.72823  -0.00001   0.00000   0.00060   0.00186   4.73009
   X54        2.59686  -0.00009   0.00000  -0.02237  -0.02325   2.57361
   Y54       -1.94863  -0.00003   0.00000   0.00988   0.00996  -1.93867
   Z54        4.70283   0.00004   0.00000   0.01312   0.01386   4.71669
   X55        5.50065  -0.00024   0.00000  -0.00437  -0.00607   5.49459
   Y55        2.91033  -0.00017   0.00000  -0.01446  -0.01318   2.89715
   Z55        2.66780  -0.00036   0.00000  -0.01774  -0.01534   2.65246
   X56        5.36561   0.00007   0.00000   0.02075   0.01855   5.38416
   Y56        4.22267   0.00034   0.00000  -0.01119  -0.01036   4.21231
   Z56        4.26676   0.00033   0.00000  -0.01644  -0.01371   4.25305
   X57        7.18810   0.00009   0.00000  -0.01053  -0.01201   7.17609
   Y57        1.76404  -0.00010   0.00000  -0.02842  -0.02686   1.73718
   Z57        3.03554   0.00001   0.00000  -0.03092  -0.02860   3.00694
   X58        0.18899  -0.00005   0.00000   0.00111  -0.00103   0.18796
   Y58        4.67974   0.00005   0.00000   0.01611   0.01612   4.69586
   Z58        2.93403  -0.00004   0.00000   0.00807   0.01024   2.94427
   X59       -1.03582   0.00002   0.00000   0.00896   0.00644  -1.02938
   Y59        5.51921  -0.00001   0.00000   0.02278   0.02213   5.54134
   Z59        4.38309   0.00003   0.00000   0.01081   0.01304   4.39613
   X60        1.77071  -0.00000   0.00000   0.00440   0.00200   1.77271
   Y60        6.00693  -0.00003   0.00000   0.01043   0.01086   6.01779
   Z60        2.68902   0.00001   0.00000  -0.00064   0.00209   2.69111
   X61       -3.14305  -0.00002   0.00000  -0.01184  -0.01335  -3.15640
   Y61       -0.47156   0.00001   0.00000  -0.01075  -0.01255  -0.48411
   Z61        6.98290   0.00002   0.00000  -0.00300  -0.00263   6.98027
   X62       -1.49096  -0.00000   0.00000  -0.01427  -0.01605  -1.50700
   Y62        0.76322   0.00000   0.00000  -0.00689  -0.00829   0.75493
   Z62        6.85523  -0.00001   0.00000   0.00190   0.00282   6.85804
   X63       -4.89571  -0.00005   0.00000  -0.01358  -0.01529  -4.91100
   Y63        0.57514  -0.00001   0.00000  -0.01435  -0.01646   0.55868
   Z63        6.68940  -0.00001   0.00000  -0.00597  -0.00556   6.68384
   X64       -3.19704  -0.00002   0.00000  -0.01361  -0.01512  -3.21216
   Y64       -1.51683  -0.00000   0.00000  -0.01263  -0.01491  -1.53173
   Z64        8.75971  -0.00001   0.00000  -0.00419  -0.00410   8.75561
   X65        5.88950   0.00010   0.00000  -0.01104  -0.01273   5.87677
   Y65        4.36192  -0.00013   0.00000  -0.02022  -0.01821   4.34371
   Z65        0.20657   0.00006   0.00000  -0.02209  -0.01926   0.18730
   X66        6.02603  -0.00008   0.00000  -0.06075  -0.06193   5.96410
   Y66        3.01702  -0.00010   0.00000  -0.02216  -0.01972   2.99731
   Z66       -1.36234  -0.00009   0.00000  -0.02513  -0.02264  -1.38498
   X67        4.25770  -0.00014   0.00000   0.00627   0.00435   4.26206
   Y67        5.55593   0.00018   0.00000   0.01356   0.01532   5.57125
   Z67       -0.23302   0.00001   0.00000   0.00263   0.00557  -0.22745
   X68        8.26196   0.00001   0.00000   0.02498   0.02292   8.28488
   Y68        6.00387  -0.00018   0.00000  -0.06979  -0.06726   5.93661
   Z68        0.30797  -0.00017   0.00000  -0.05604  -0.05248   0.25549
   X69        8.56842   0.00003   0.00000   0.01802   0.01597   8.58438
   Y69        7.02515  -0.00009   0.00000  -0.07230  -0.06924   6.95591
   Z69       -1.46405  -0.00008   0.00000  -0.05872  -0.05485  -1.51890
   X70        8.11955   0.00016   0.00000   0.08028   0.07771   8.19725
   Y70        7.40106   0.00004   0.00000  -0.07000  -0.06789   7.33317
   Z70        1.82833   0.00007   0.00000  -0.04998  -0.04606   1.78227
   X71        9.94291   0.00004   0.00000   0.00678   0.00494   9.94785
   Y71        4.85340  -0.00017   0.00000  -0.10661  -0.10379   4.74961
   Z71        0.68359  -0.00012   0.00000  -0.08651  -0.08304   0.60055
   X72        9.13382   0.00001   0.00000   0.00511   0.00540   9.13923
   Y72       -4.25425   0.00004   0.00000   0.02039   0.02326  -4.23099
   Z72       -0.33204   0.00002   0.00000   0.02133   0.02235  -0.30969
   X73       10.23973  -0.00001   0.00000   0.00119   0.00123  10.24096
   Y73       -4.13568   0.00005   0.00000   0.03091   0.03357  -4.10211
   Z73        1.40490   0.00003   0.00000   0.02310   0.02429   1.42919
   X74       10.03953   0.00001   0.00000   0.00891   0.00968  10.04921
   Y74       -5.61666   0.00002   0.00000   0.01396   0.01737  -5.59930
   Z74       -1.60096   0.00005   0.00000   0.03101   0.03178  -1.56917
   X75        8.80376  -0.00001   0.00000   0.00650   0.00640   8.81016
   Y75       -1.69520  -0.00003   0.00000   0.01298   0.01612  -1.67908
   Z75       -1.63849   0.00002   0.00000   0.00647   0.00811  -1.63037
   X76        8.37066   0.00004   0.00000   0.00563   0.00502   8.37567
   Y76       -0.26022   0.00006   0.00000   0.02133   0.02401  -0.23621
   Z76       -0.21745  -0.00001   0.00000  -0.00219  -0.00023  -0.21768
   X77       10.45869   0.00001   0.00000   0.00775   0.00766  10.46635
   Y77       -1.09203   0.00000   0.00000   0.00659   0.01039  -1.08165
   Z77       -2.71357   0.00000   0.00000   0.00480   0.00682  -2.70675
         Item               Value     Threshold  Converged?
 Maximum Force            0.000363     0.000450     YES
 RMS     Force            0.000076     0.000300     YES
 Maximum Displacement     0.103792     0.001800     NO 
 RMS     Displacement     0.019697     0.001200     NO 
 Predicted change in Energy=-1.191048D-04
 GradGradGradGradGradGradGradGradGradGradGradGradGradGradGradGradGradGrad

 Leave Link  103 at Thu Feb  7 14:41:31 2019, MaxMem=   104857600 cpu:              20.9 elap:               0.9
 (Enter /home/xinyan/g16/l9999.exe)
 1\1\GINC-TSE4\Force\RM062X\6-31G(d)\C27H41N3O5S1\STEVETSE\07-Feb-2019\
 0\\#p M062X/6-31G* em=gd3 force int=ultrafine\\Title\\0,1\C,-4.89713,0
 .24693,-0.43106\C,-5.08584,-1.02339,-1.26572\C,-3.75496,-1.47782,-1.87
 781\C,-2.75752,-1.71947,-0.75093\C,-2.52386,-0.42463,0.06953\C,-3.8504
 7,0.05237,0.67074\H,-3.8798,-2.38743,-2.47493\H,-5.48357,-1.8263,-0.63
 119\H,-5.81743,-0.85289,-2.06173\H,-4.57443,1.06332,-1.09037\H,-5.8511
 7,0.5497,0.01264\H,-3.14984,-2.49015,-0.08042\H,-2.19024,0.34499,-0.63
 825\H,-4.20816,-0.68059,1.40166\H,-3.66718,0.99669,1.19443\H,-3.39295,
 -0.68393,-2.54504\N,-1.4326,-2.20311,-1.19227\C,-0.72843,-1.50065,-2.1
 1963\C,-0.75362,-3.02011,-0.3432\C,0.6288,-1.55493,-2.19527\H,-1.30841
 ,-0.86216,-2.77464\C,0.60354,-3.11228,-0.34477\H,-1.35813,-3.5411,0.39
 143\C,1.36326,-2.27758,-1.20749\H,1.13422,-0.96831,-2.9504\H,1.07418,-
 3.72463,0.41118\N,2.68315,-2.17781,-1.09958\C,3.39076,-2.66237,0.09549
 \H,3.26939,-3.74354,0.20471\H,2.97911,-2.13853,0.97077\C,3.42576,-1.09
 19,-1.75454\H,3.6894,-1.38262,-2.77885\H,2.79835,-0.19662,-1.76701\N,-
 1.41903,-0.55081,1.00722\S,-1.49688,-1.43117,2.37775\O,-2.70352,-2.262
 47,2.32232\O,-0.21235,-2.10807,2.57365\C,-0.71184,2.46246,0.25331\C,-0
 .21707,1.99936,-0.97624\C,-0.9762,2.12035,-2.13872\C,-2.24601,2.69731,
 -2.10773\C,-2.75053,3.15594,-0.89401\C,-1.9852,3.0394,0.2667\H,0.74052
 ,1.49083,-0.99158\H,-0.56547,1.76673,-3.0823\H,-2.83125,2.7946,-3.0180
 3\H,-3.73674,3.60984,-0.84861\H,-2.38722,3.41178,1.20698\O,0.55306,1.2
 7232,2.10606\H,-0.43313,-0.30058,0.71689\C,1.70931,0.56127,1.47744\O,1
 .33397,-0.01879,0.35655\O,2.06851,-0.34786,2.50207\H,1.3742,-1.03117,2
 .48863\C,2.91082,1.54008,1.41174\H,2.83936,2.23454,2.25787\H,3.80378,0
 .93349,1.60634\C,0.10001,2.47641,1.55262\H,-0.54813,2.92064,2.31943\H,
 0.93702,3.17873,1.42297\C,-1.66323,-0.24954,3.69519\H,-0.78898,0.40388
 ,3.62763\H,-2.5907,0.30435,3.53988\H,-1.6918,-0.80267,4.63544\C,3.1165
 9,2.30823,0.10931\H,3.18884,1.59654,-0.72092\H,2.25308,2.94007,-0.1233
 1\C,4.37204,3.17711,0.16297\H,4.53421,3.71755,-0.77474\H,4.29668,3.916
 47,0.96751\H,5.26156,2.56831,0.36174\C,4.83341,-2.25125,-0.17571\H,5.4
 1863,-2.18851,0.74344\H,5.31269,-2.97221,-0.84719\C,4.65875,-0.89706,-
 0.86705\H,4.42956,-0.1377,-0.11507\H,5.5345,-0.57788,-1.43596\\Version
 =ES64L-G16RevA.03\State=1-A\HF=-1991.3584333\RMSD=9.344e-09\RMSF=7.591
 e-05\Dipole=-0.968969,-0.6924861,-2.5336737\Quadrupole=7.7887976,-5.19
 80925,-2.5907051,-9.3177574,-3.9471084,7.2436475\PG=C01 [X(C27H41N3O5S
 1)]\\@


 IF YOU GET CONFUSED, LOGIC OUT YOUR DILEMMA

           --  PICKER X-RAY CORP.    DIGITAL PRINTER MANUAL CA. 1964
 Job cpu time:       0 days  1 hours 18 minutes 53.3 seconds.
 Elapsed time:       0 days  0 hours  3 minutes 19.3 seconds.
 File lengths (MBytes):  RWF=    216 Int=      0 D2E=      0 Chk=     25 Scr=      1
 Normal termination of Gaussian 16 at Thu Feb  7 14:41:31 2019.
