 Entering Gaussian System, Link 0=g16
 Input=C27N3H41SO5-94.gjf
 Output=C27N3H41SO5-94.log
 Initial command:
 /home/xinyan/g16/l1.exe "/local/home/tmp/Gau-6095.inp" -scrdir="/local/home/tmp/"
 Entering Link 1 = /home/xinyan/g16/l1.exe PID=      6096.
  
 Copyright (c) 1988,1990,1992,1993,1995,1998,2003,2009,2016,
            Gaussian, Inc.  All Rights Reserved.
  
 This is part of the Gaussian(R) 16 program.  It is based on
 the Gaussian(R) 09 system (copyright 2009, Gaussian, Inc.),
 the Gaussian(R) 03 system (copyright 2003, Gaussian, Inc.),
 the Gaussian(R) 98 system (copyright 1998, Gaussian, Inc.),
 the Gaussian(R) 94 system (copyright 1995, Gaussian, Inc.),
 the Gaussian 92(TM) system (copyright 1992, Gaussian, Inc.),
 the Gaussian 90(TM) system (copyright 1990, Gaussian, Inc.),
 the Gaussian 88(TM) system (copyright 1988, Gaussian, Inc.),
 the Gaussian 86(TM) system (copyright 1986, Carnegie Mellon
 University), and the Gaussian 82(TM) system (copyright 1983,
 Carnegie Mellon University). Gaussian is a federally registered
 trademark of Gaussian, Inc.
  
 This software contains proprietary and confidential information,
 including trade secrets, belonging to Gaussian, Inc.
  
 This software is provided under written license and may be
 used, copied, transmitted, or stored only in accord with that
 written license.
  
 The following legend is applicable only to US Government
 contracts under FAR:
  
                    RESTRICTED RIGHTS LEGEND
  
 Use, reproduction and disclosure by the US Government is
 subject to restrictions as set forth in subparagraphs (a)
 and (c) of the Commercial Computer Software - Restricted
 Rights clause in FAR 52.227-19.
  
 Gaussian, Inc.
 340 Quinnipiac St., Bldg. 40, Wallingford CT 06492
  
  
 ---------------------------------------------------------------
 Warning -- This program may not be used in any manner that
 competes with the business of Gaussian, Inc. or will provide
 assistance to any competitor of Gaussian, Inc.  The licensee
 of this program is prohibited from giving any competitor of
 Gaussian, Inc. access to this program.  By using this program,
 the user acknowledges that Gaussian, Inc. is engaged in the
 business of creating and licensing software in the field of
 computational chemistry and represents and warrants to the
 licensee that it is not a competitor of Gaussian, Inc. and that
 it will not use this program in any manner prohibited above.
 ---------------------------------------------------------------
  

 Cite this work as:
 Gaussian 16, Revision A.03,
 M. J. Frisch, G. W. Trucks, H. B. Schlegel, G. E. Scuseria, 
 M. A. Robb, J. R. Cheeseman, G. Scalmani, V. Barone, 
 G. A. Petersson, H. Nakatsuji, X. Li, M. Caricato, A. V. Marenich, 
 J. Bloino, B. G. Janesko, R. Gomperts, B. Mennucci, H. P. Hratchian, 
 J. V. Ortiz, A. F. Izmaylov, J. L. Sonnenberg, D. Williams-Young, 
 F. Ding, F. Lipparini, F. Egidi, J. Goings, B. Peng, A. Petrone, 
 T. Henderson, D. Ranasinghe, V. G. Zakrzewski, J. Gao, N. Rega, 
 G. Zheng, W. Liang, M. Hada, M. Ehara, K. Toyota, R. Fukuda, 
 J. Hasegawa, M. Ishida, T. Nakajima, Y. Honda, O. Kitao, H. Nakai, 
 T. Vreven, K. Throssell, J. A. Montgomery, Jr., J. E. Peralta, 
 F. Ogliaro, M. J. Bearpark, J. J. Heyd, E. N. Brothers, K. N. Kudin, 
 V. N. Staroverov, T. A. Keith, R. Kobayashi, J. Normand, 
 K. Raghavachari, A. P. Rendell, J. C. Burant, S. S. Iyengar, 
 J. Tomasi, M. Cossi, J. M. Millam, M. Klene, C. Adamo, R. Cammi, 
 J. W. Ochterski, R. L. Martin, K. Morokuma, O. Farkas, 
 J. B. Foresman, and D. J. Fox, Gaussian, Inc., Wallingford CT, 2016.
 
 ******************************************
 Gaussian 16:  ES64L-G16RevA.03 25-Dec-2016
                 7-Feb-2019 
 ******************************************
 %nproc=24
 Will use up to   24 processors via shared memory.
 ------------------------------------------
 #p M062X/6-31G* em=gd3 force int=ultrafine
 ------------------------------------------
 1/10=7,30=1,38=1/1,3;
 2/12=2,17=6,18=5,40=1/2;
 3/5=1,6=6,7=1,11=2,25=1,30=1,71=1,74=-55,75=-5,124=31/1,2,3;
 4//1;
 5/5=2,38=5/2;
 6/7=2,8=2,9=2,10=2,28=1/1;
 7/29=1/1,2,3,16;
 1/10=7,30=1/3;
 99//99;
 Leave Link    1 at Thu Feb  7 13:45:32 2019, MaxMem=           0 cpu:               2.5 elap:               0.1
 (Enter /home/xinyan/g16/l101.exe)
 -----
 Title
 -----
 Symbolic Z-matrix:
 Charge =  0 Multiplicity = 1
 C                    -4.9085    0.24878  -0.42822 
 C                    -5.09804  -1.02811  -1.25263 
 C                    -3.76805  -1.48598  -1.86381 
 C                    -2.76711  -1.71826  -0.73791 
 C                    -2.53495  -0.41878   0.0748 
 C                    -3.86093   0.06206   0.67415 
 H                    -3.89299  -2.40028  -2.45368 
 H                    -5.49394  -1.8263   -0.61104 
 H                    -5.83129  -0.86455  -2.04857 
 H                    -4.58635   1.06008  -1.09425 
 H                    -5.86212   0.55501   0.01395 
 H                    -3.15521  -2.48666  -0.06226 
 H                    -2.20199   0.34709  -0.63735 
 H                    -4.21797  -0.66553   1.41055 
 H                    -3.6769    1.00992   1.19124 
 H                    -3.40841  -0.69699  -2.53806 
 N                    -1.44225  -2.20018  -1.18146 
 C                    -0.74167  -1.49717  -2.11141 
 C                    -0.76008  -3.018    -0.33604 
 C                     0.61499  -1.5528   -2.19376 
 H                    -1.32404  -0.85665  -2.76223 
 C                     0.59684  -3.11397  -0.34636 
 H                    -1.36107  -3.53711   0.40278 
 C                     1.3538   -2.28106  -1.21345 
 H                     1.11774  -0.96442  -2.94942 
 H                     1.07038  -3.72764   0.40669 
 N                     2.6748   -2.18765  -1.11597 
 C                     3.38964  -2.68944   0.06736 
 H                     3.26492  -3.77145   0.16405 
 H                     2.98696  -2.17467   0.95208 
 C                     3.41665  -1.0951   -1.76223 
 H                     3.67753  -1.37565  -2.79012 
 H                     2.79092  -0.19852  -1.76081 
 N                    -1.42953  -0.5379    1.01326 
 S                    -1.49839  -1.41642   2.38709 
 O                    -2.71424  -2.23445   2.34438 
 O                    -0.21886  -2.10599   2.56886 
 C                    -0.69736   2.44722   0.23078 
 C                    -0.19952   1.97176  -0.99272 
 C                    -0.95283   2.08762  -2.15962 
 C                    -2.21973   2.67111  -2.13926 
 C                    -2.72701   3.14265  -0.93152 
 C                    -1.96767   3.03135   0.23359 
 H                     0.75572   1.45808  -0.99823 
 H                    -0.53947   1.72437  -3.09844 
 H                    -2.8003    2.76385  -3.05299 
 H                    -3.71093   3.60221  -0.89433 
 H                    -2.37238   3.4127    1.16912 
 O                     0.56158   1.25854   2.08821 
 H                    -0.44949  -0.28959   0.72042 
 C                     1.73182   0.5522    1.46942 
 O                     1.37201  -0.0241    0.34383 
 O                     2.07951  -0.3585    2.49642 
 H                     1.38614  -1.04253   2.47179 
 C                     2.92566   1.53993   1.42444 
 H                     2.83765   2.22936   2.27408 
 H                     3.82334   0.94198   1.62539 
 C                     0.1061    2.46191   1.53573 
 H                    -0.55032   2.90015   2.29914 
 H                     0.93983   3.16978   1.41457 
 C                    -1.63713  -0.23039   3.70369 
 H                    -0.75492   0.41129   3.62698 
 H                    -2.55882   0.33519   3.55606 
 H                    -1.6639   -0.78206   4.64485 
 C                     3.13664   2.3197    0.12957 
 H                     3.28405   1.61525  -0.69878 
 H                     2.24586   2.9      -0.13671 
 C                     4.33355   3.26361   0.23515 
 H                     4.50695   3.80924  -0.69749 
 H                     4.17293   4.00021   1.02924 
 H                     5.24767   2.71291   0.48186 
 C                     4.83117  -2.27853  -0.20917 
 H                     5.42482  -2.23297   0.70554 
 H                     5.30225  -2.98914  -0.89739 
 C                     4.65169  -0.91271  -0.8752 
 H                     4.41973  -0.16927  -0.10808 
 H                     5.52482  -0.57966  -1.44013 
 
 ITRead=  0  0  0  0  0  0  0  0  0  0  0  0  0  0  0  0  0  0  0  0
 ITRead=  0  0  0  0  0  0  0  0  0  0  0  0  0  0  0  0  0  0  0  0
 ITRead=  0  0  0  0  0  0  0  0  0  0  0  0  0  0  0  0  0  0  0  0
 ITRead=  0  0  0  0  0  0  0  0  0  0  0  0  0  0  0  0  0
 MicOpt= -1 -1 -1 -1 -1 -1 -1 -1 -1 -1 -1 -1 -1 -1 -1 -1 -1 -1 -1 -1
 MicOpt= -1 -1 -1 -1 -1 -1 -1 -1 -1 -1 -1 -1 -1 -1 -1 -1 -1 -1 -1 -1
 MicOpt= -1 -1 -1 -1 -1 -1 -1 -1 -1 -1 -1 -1 -1 -1 -1 -1 -1 -1 -1 -1
 MicOpt= -1 -1 -1 -1 -1 -1 -1 -1 -1 -1 -1 -1 -1 -1 -1 -1 -1
 NAtoms=     77 NQM=       77 NQMF=       0 NMMI=      0 NMMIF=      0
                NMic=       0 NMicF=      0.
                    Isotopes and Nuclear Properties:
 (Nuclear quadrupole moments (NQMom) in fm**2, nuclear magnetic moments (NMagM)
  in nuclear magnetons)

  Atom         1           2           3           4           5           6           7           8           9          10
 IAtWgt=          12          12          12          12          12          12           1           1           1           1
 AtmWgt=  12.0000000  12.0000000  12.0000000  12.0000000  12.0000000  12.0000000   1.0078250   1.0078250   1.0078250   1.0078250
 NucSpn=           0           0           0           0           0           0           1           1           1           1
 AtZEff=  -0.0000000  -0.0000000  -0.0000000  -0.0000000  -0.0000000  -0.0000000  -0.0000000  -0.0000000  -0.0000000  -0.0000000
 NQMom=    0.0000000   0.0000000   0.0000000   0.0000000   0.0000000   0.0000000   0.0000000   0.0000000   0.0000000   0.0000000
 NMagM=    0.0000000   0.0000000   0.0000000   0.0000000   0.0000000   0.0000000   2.7928460   2.7928460   2.7928460   2.7928460
 AtZNuc=   6.0000000   6.0000000   6.0000000   6.0000000   6.0000000   6.0000000   1.0000000   1.0000000   1.0000000   1.0000000

  Atom        11          12          13          14          15          16          17          18          19          20
 IAtWgt=           1           1           1           1           1           1          14          12          12          12
 AtmWgt=   1.0078250   1.0078250   1.0078250   1.0078250   1.0078250   1.0078250  14.0030740  12.0000000  12.0000000  12.0000000
 NucSpn=           1           1           1           1           1           1           2           0           0           0
 AtZEff=  -0.0000000  -0.0000000  -0.0000000  -0.0000000  -0.0000000  -0.0000000  -0.0000000  -0.0000000  -0.0000000  -0.0000000
 NQMom=    0.0000000   0.0000000   0.0000000   0.0000000   0.0000000   0.0000000   2.0440000   0.0000000   0.0000000   0.0000000
 NMagM=    2.7928460   2.7928460   2.7928460   2.7928460   2.7928460   2.7928460   0.4037610   0.0000000   0.0000000   0.0000000
 AtZNuc=   1.0000000   1.0000000   1.0000000   1.0000000   1.0000000   1.0000000   7.0000000   6.0000000   6.0000000   6.0000000

  Atom        21          22          23          24          25          26          27          28          29          30
 IAtWgt=           1          12           1          12           1           1          14          12           1           1
 AtmWgt=   1.0078250  12.0000000   1.0078250  12.0000000   1.0078250   1.0078250  14.0030740  12.0000000   1.0078250   1.0078250
 NucSpn=           1           0           1           0           1           1           2           0           1           1
 AtZEff=  -0.0000000  -0.0000000  -0.0000000  -0.0000000  -0.0000000  -0.0000000  -0.0000000  -0.0000000  -0.0000000  -0.0000000
 NQMom=    0.0000000   0.0000000   0.0000000   0.0000000   0.0000000   0.0000000   2.0440000   0.0000000   0.0000000   0.0000000
 NMagM=    2.7928460   0.0000000   2.7928460   0.0000000   2.7928460   2.7928460   0.4037610   0.0000000   2.7928460   2.7928460
 AtZNuc=   1.0000000   6.0000000   1.0000000   6.0000000   1.0000000   1.0000000   7.0000000   6.0000000   1.0000000   1.0000000

  Atom        31          32          33          34          35          36          37          38          39          40
 IAtWgt=          12           1           1          14          32          16          16          12          12          12
 AtmWgt=  12.0000000   1.0078250   1.0078250  14.0030740  31.9720718  15.9949146  15.9949146  12.0000000  12.0000000  12.0000000
 NucSpn=           0           1           1           2           0           0           0           0           0           0
 AtZEff=  -0.0000000  -0.0000000  -0.0000000  -0.0000000  -0.0000000  -0.0000000  -0.0000000  -0.0000000  -0.0000000  -0.0000000
 NQMom=    0.0000000   0.0000000   0.0000000   2.0440000   0.0000000   0.0000000   0.0000000   0.0000000   0.0000000   0.0000000
 NMagM=    0.0000000   2.7928460   2.7928460   0.4037610   0.0000000   0.0000000   0.0000000   0.0000000   0.0000000   0.0000000
 AtZNuc=   6.0000000   1.0000000   1.0000000   7.0000000  16.0000000   8.0000000   8.0000000   6.0000000   6.0000000   6.0000000

  Atom        41          42          43          44          45          46          47          48          49          50
 IAtWgt=          12          12          12           1           1           1           1           1          16           1
 AtmWgt=  12.0000000  12.0000000  12.0000000   1.0078250   1.0078250   1.0078250   1.0078250   1.0078250  15.9949146   1.0078250
 NucSpn=           0           0           0           1           1           1           1           1           0           1
 AtZEff=  -0.0000000  -0.0000000  -0.0000000  -0.0000000  -0.0000000  -0.0000000  -0.0000000  -0.0000000  -0.0000000  -0.0000000
 NQMom=    0.0000000   0.0000000   0.0000000   0.0000000   0.0000000   0.0000000   0.0000000   0.0000000   0.0000000   0.0000000
 NMagM=    0.0000000   0.0000000   0.0000000   2.7928460   2.7928460   2.7928460   2.7928460   2.7928460   0.0000000   2.7928460
 AtZNuc=   6.0000000   6.0000000   6.0000000   1.0000000   1.0000000   1.0000000   1.0000000   1.0000000   8.0000000   1.0000000

  Atom        51          52          53          54          55          56          57          58          59          60
 IAtWgt=          12          16          16           1          12           1           1          12           1           1
 AtmWgt=  12.0000000  15.9949146  15.9949146   1.0078250  12.0000000   1.0078250   1.0078250  12.0000000   1.0078250   1.0078250
 NucSpn=           0           0           0           1           0           1           1           0           1           1
 AtZEff=  -0.0000000  -0.0000000  -0.0000000  -0.0000000  -0.0000000  -0.0000000  -0.0000000  -0.0000000  -0.0000000  -0.0000000
 NQMom=    0.0000000   0.0000000   0.0000000   0.0000000   0.0000000   0.0000000   0.0000000   0.0000000   0.0000000   0.0000000
 NMagM=    0.0000000   0.0000000   0.0000000   2.7928460   0.0000000   2.7928460   2.7928460   0.0000000   2.7928460   2.7928460
 AtZNuc=   6.0000000   8.0000000   8.0000000   1.0000000   6.0000000   1.0000000   1.0000000   6.0000000   1.0000000   1.0000000

  Atom        61          62          63          64          65          66          67          68          69          70
 IAtWgt=          12           1           1           1          12           1           1          12           1           1
 AtmWgt=  12.0000000   1.0078250   1.0078250   1.0078250  12.0000000   1.0078250   1.0078250  12.0000000   1.0078250   1.0078250
 NucSpn=           0           1           1           1           0           1           1           0           1           1
 AtZEff=  -0.0000000  -0.0000000  -0.0000000  -0.0000000  -0.0000000  -0.0000000  -0.0000000  -0.0000000  -0.0000000  -0.0000000
 NQMom=    0.0000000   0.0000000   0.0000000   0.0000000   0.0000000   0.0000000   0.0000000   0.0000000   0.0000000   0.0000000
 NMagM=    0.0000000   2.7928460   2.7928460   2.7928460   0.0000000   2.7928460   2.7928460   0.0000000   2.7928460   2.7928460
 AtZNuc=   6.0000000   1.0000000   1.0000000   1.0000000   6.0000000   1.0000000   1.0000000   6.0000000   1.0000000   1.0000000

  Atom        71          72          73          74          75          76          77
 IAtWgt=           1          12           1           1          12           1           1
 AtmWgt=   1.0078250  12.0000000   1.0078250   1.0078250  12.0000000   1.0078250   1.0078250
 NucSpn=           1           0           1           1           0           1           1
 AtZEff=  -0.0000000  -0.0000000  -0.0000000  -0.0000000  -0.0000000  -0.0000000  -0.0000000
 NQMom=    0.0000000   0.0000000   0.0000000   0.0000000   0.0000000   0.0000000   0.0000000
 NMagM=    2.7928460   0.0000000   2.7928460   2.7928460   0.0000000   2.7928460   2.7928460
 AtZNuc=   1.0000000   6.0000000   1.0000000   1.0000000   6.0000000   1.0000000   1.0000000
 Leave Link  101 at Thu Feb  7 13:45:33 2019, MaxMem=   104857600 cpu:               5.8 elap:               0.3
 (Enter /home/xinyan/g16/l103.exe)

 GradGradGradGradGradGradGradGradGradGradGradGradGradGradGradGradGradGrad
 Berny optimization.
 Initialization pass.
 Trust Radius=3.00D-01 FncErr=1.00D-07 GrdErr=1.00D-07 EigMax=2.50D+02 EigMin=1.00D-04
 Number of steps in this run=      2 maximum allowed number of steps=      2.
 GradGradGradGradGradGradGradGradGradGradGradGradGradGradGradGradGradGrad

 Leave Link  103 at Thu Feb  7 13:45:33 2019, MaxMem=   104857600 cpu:               1.6 elap:               0.1
 (Enter /home/xinyan/g16/l202.exe)
 Stoichiometry    C27H41N3O5S
 Framework group  C1[X(C27H41N3O5S)]
 Deg. of freedom   225
 Full point group                 C1      NOp   1
 Largest Abelian subgroup         C1      NOp   1
 Largest concise Abelian subgroup C1      NOp   1
                         Standard orientation:                         
 ---------------------------------------------------------------------
 Center     Atomic      Atomic             Coordinates (Angstroms)
 Number     Number       Type             X           Y           Z
 ---------------------------------------------------------------------
      1          6           0       -4.795201    0.457817   -0.516309
      2          6           0       -5.002168   -0.844844   -1.294939
      3          6           0       -3.685236   -1.323582   -1.918283
      4          6           0       -2.661362   -1.520395   -0.806334
      5          6           0       -2.412017   -0.195577   -0.041003
      6          6           0       -3.725176    0.305732    0.569695
      7          1           0       -3.822647   -2.256331   -2.475596
      8          1           0       -5.385032   -1.621484   -0.619864
      9          1           0       -5.751625   -0.706330   -2.080468
     10          1           0       -4.486570    1.246847   -1.214709
     11          1           0       -5.739385    0.779149   -0.064706
     12          1           0       -3.035714   -2.266169   -0.098348
     13          1           0       -2.093547    0.546545   -0.784244
     14          1           0       -4.067207   -0.397323    1.336427
     15          1           0       -3.530176    1.269613    1.051978
     16          1           0       -3.339301   -0.557154   -2.624949
     17          7           0       -1.346108   -2.017750   -1.261288
     18          6           0       -0.664613   -1.345867   -2.227714
     19          6           0       -0.646933   -2.808531   -0.404118
     20          6           0        0.690039   -1.405519   -2.336167
     21          1           0       -1.260057   -0.726109   -2.886754
     22          6           0        0.709450   -2.906175   -0.439296
     23          1           0       -1.232738   -3.302886    0.363322
     24          6           0        1.448657   -2.102487   -1.348268
     25          1           0        1.177302   -0.842373   -3.120649
     26          1           0        1.198207   -3.495683    0.323274
     27          7           0        2.771421   -2.007331   -1.281105
     28          6           0        3.510344   -2.471365   -0.097160
     29          1           0        3.387257   -3.549558    0.036998
     30          1           0        3.126188   -1.927871    0.778572
     31          6           0        3.500171   -0.936990   -1.977490
     32          1           0        3.739686   -1.250866   -3.000934
     33          1           0        2.874925   -0.040191   -1.992150
     34          7           0       -1.287512   -0.285452    0.877834
     35         16           0       -1.328327   -1.119062    2.280466
     36          8           0       -2.545092   -1.936798    2.289284
     37          8           0       -0.045566   -1.803711    2.458017
     38          6           0       -0.570572    2.672080   -0.015637
     39          6           0       -0.098253    2.156834   -1.233132
     40          6           0       -0.875437    2.235709   -2.387393
     41          6           0       -2.141438    2.820851   -2.359794
     42          6           0       -2.623522    3.331680   -1.157726
     43          6           0       -1.840344    3.257298   -0.005526
     44          1           0        0.856486    1.642265   -1.241724
     45          1           0       -0.481666    1.841897   -3.322303
     46          1           0       -2.740704    2.884620   -3.263884
     47          1           0       -3.606300    3.793210   -1.115137
     48          1           0       -2.225529    3.669086    0.925333
     49          8           0        0.725997    1.542734    1.852898
     50          1           0       -0.313634   -0.047736    0.556985
     51          6           0        1.882968    0.815574    1.233272
     52          8           0        1.499804    0.203582    0.134550
     53          8           0        2.251447   -0.061830    2.281784
     54          1           0        1.557471   -0.745588    2.293569
     55          6           0        3.075979    1.800111    1.131797
     56          1           0        3.005766    2.516718    1.960345
     57          1           0        3.977400    1.208044    1.333423
     58          6           0        0.259647    2.728095    1.271320
     59          1           0       -0.380725    3.191440    2.033535
     60          1           0        1.090953    3.430826    1.110188
     61          6           0       -1.439447    0.109023    3.560627
     62          1           0       -0.558777    0.746985    3.445052
     63          1           0       -2.363784    0.670483    3.413823
     64          1           0       -1.446990   -0.411928    4.519476
     65          6           0        3.260478    2.537427   -0.191671
     66          1           0        3.390512    1.806435   -0.999683
     67          1           0        2.364601    3.109735   -0.458150
     68          6           0        4.459650    3.483028   -0.141343
     69          1           0        4.613965    3.998066   -1.094506
     70          1           0        4.315712    4.245060    0.631668
     71          1           0        5.378468    2.939648    0.104143
     72          6           0        4.946009   -2.071081   -0.416478
     73          1           0        5.558422   -1.996604    0.483852
     74          1           0        5.402534   -2.804035   -1.090935
     75          6           0        4.753315   -0.727306   -1.122461
     76          1           0        4.537498    0.040765   -0.375151
     77          1           0        5.614722   -0.413575   -1.715735
 ---------------------------------------------------------------------
 Rotational constants (GHZ):           0.1539797           0.1009481           0.0907513
 Leave Link  202 at Thu Feb  7 13:45:33 2019, MaxMem=   104857600 cpu:               2.3 elap:               0.1
 (Enter /home/xinyan/g16/l301.exe)
 Standard basis: 6-31G(d) (6D, 7F)
 Ernie: Thresh=  0.10000D-02 Tol=  0.10000D-05 Strict=F.
 There are   626 symmetry adapted cartesian basis functions of A   symmetry.
 There are   626 symmetry adapted basis functions of A   symmetry.
   626 basis functions,  1196 primitive gaussians,   626 cartesian basis functions
   140 alpha electrons      140 beta electrons
       nuclear repulsion energy      4989.4272154268 Hartrees.
 IExCor= 4336 DFT=T Ex+Corr=M062X ExCW=0 ScaHFX=  0.540000
 ScaDFX=  1.000000  1.000000  1.000000  1.000000 ScalE2=  1.000000  1.000000
 IRadAn=      5 IRanWt=     -1 IRanGd=            0 ICorTp=0 IEmpDi=131
 NAtoms=   77 NActive=   77 NUniq=   77 SFac= 1.00D+00 NAtFMM=   60 NAOKFM=T Big=T
 Integral buffers will be    131072 words long.
 Raffenetti 2 integral format.
 Two-electron integral symmetry is turned on.
 R6Disp:  Grimme-D3 Dispersion energy=       -0.0108238289 Hartrees.
 Nuclear repulsion after empirical dispersion term =     4989.4163915980 Hartrees.
 Leave Link  301 at Thu Feb  7 13:45:33 2019, MaxMem=   104857600 cpu:               3.0 elap:               0.2
 (Enter /home/xinyan/g16/l302.exe)
 NPDir=0 NMtPBC=     1 NCelOv=     1 NCel=       1 NClECP=     1 NCelD=      1
         NCelK=      1 NCelE2=     1 NClLst=     1 CellRange=     0.0.
 One-electron integrals computed using PRISM.
 One-electron integral symmetry used in STVInt
 PrsmSu:  requested number of processors reduced to:  23 ShMem   1 Linda.
 NBasis=   626 RedAO= T EigKep=  4.42D-04  NBF=   626
 NBsUse=   626 1.00D-06 EigRej= -1.00D+00 NBFU=   626
 Precomputing XC quadrature grid using
 IXCGrd= 4 IRadAn=           5 IRanWt=          -1 IRanGd=           0 AccXCQ= 0.00D+00.
 Generated NRdTot=       0 NPtTot=           0 NUsed=           0 NTot=          32
 NSgBfM=   621   621   621   621   621 MxSgAt=    77 MxSgA2=    77.
 Leave Link  302 at Thu Feb  7 13:45:37 2019, MaxMem=   104857600 cpu:              81.3 elap:               3.6
 (Enter /home/xinyan/g16/l303.exe)
 DipDrv:  MaxL=1.
 Leave Link  303 at Thu Feb  7 13:45:37 2019, MaxMem=   104857600 cpu:               6.2 elap:               0.3
 (Enter /home/xinyan/g16/l401.exe)
 ExpMin= 1.17D-01 ExpMax= 2.19D+04 ExpMxC= 3.30D+03 IAcc=3 IRadAn=         5 AccDes= 0.00D+00
 Harris functional with IExCor= 1009 and IRadAn=       5 diagonalized for initial guess.
 HarFok:  IExCor= 1009 AccDes= 0.00D+00 IRadAn=         5 IDoV= 1 UseB2=F ITyADJ=14
 ICtDFT=  3500011 ScaDFX=  1.000000  1.000000  1.000000  1.000000
 FoFCou: FMM=F IPFlag=           0 FMFlag=      100000 FMFlg1=        2001
         NFxFlg=           0 DoJE=T BraDBF=F KetDBF=T FulRan=T
         wScrn=  0.000000 ICntrl=       500 IOpCl=  0 I1Cent=   200000004 NGrid=           0
         NMat0=    1 NMatS0=      1 NMatT0=    0 NMatD0=    1 NMtDS0=    0 NMtDT0=    0
 Petite list used in FoFCou.
 Harris En= -1990.52990141447    
 JPrj=0 DoOrth=F DoCkMO=F.
 Leave Link  401 at Thu Feb  7 13:45:41 2019, MaxMem=   104857600 cpu:              99.7 elap:               4.2
 (Enter /home/xinyan/g16/l502.exe)
 Integral symmetry usage will be decided dynamically.
 Closed shell SCF:
 Using DIIS extrapolation, IDIIS=  1040.
 NGot=   104857600 LenX=   104051656 LenY=   103659154
 Requested convergence on RMS density matrix=1.00D-08 within 128 cycles.
 Requested convergence on MAX density matrix=1.00D-06.
 Requested convergence on             energy=1.00D-06.
 No special actions if energy rises.
 Fock matrices will be formed incrementally for  20 cycles.
 Integral accuracy reduced to 1.0D-05 until final iterations.

 Cycle   1  Pass 0  IDiag  1:
 FoFJK:  IHMeth= 1 ICntrl=       0 DoSepK=F KAlg= 0 I1Cent=           0 FoldK=F
 IRaf= 990000000 NMat=       1 IRICut=       1 DoRegI=T DoRafI=F ISym2E= 0 IDoP0=0 IntGTp=1.
 FoFCou: FMM=T IPFlag=           0 FMFlag=      100000 FMFlg1=        2001
         NFxFlg=           0 DoJE=F BraDBF=F KetDBF=F FulRan=T
         wScrn=  0.000000 ICntrl=         0 IOpCl=  0 I1Cent=           0 NGrid=           0
         NMat0=    1 NMatS0=      1 NMatT0=    0 NMatD0=    1 NMtDS0=    0 NMtDT0=    0
 Symmetry not used in FoFCou.
 FMM levels:  10  Number of levels for PrismC:   9
 E= -1990.29769429273    
 DIIS: error= 2.29D-02 at cycle   1 NSaved=   1.
 NSaved= 1 IEnMin= 1 EnMin= -1990.29769429273     IErMin= 1 ErrMin= 2.29D-02
 ErrMax= 2.29D-02  0.00D+00 EMaxC= 1.00D-01 BMatC= 1.24D+00 BMatP= 1.24D+00
 IDIUse=3 WtCom= 7.71D-01 WtEn= 2.29D-01
 Coeff-Com:  0.100D+01
 Coeff-En:   0.100D+01
 Coeff:      0.100D+01
 Gap=     0.367 Goal=   None    Shift=    0.000
 GapD=    0.367 DampG=1.000 DampE=0.500 DampFc=0.5000 IDamp=-1.
 Damping current iteration by 5.00D-01
 RMSDP=3.45D-03 MaxDP=3.47D-01              OVMax= 1.98D-01

 Cycle   2  Pass 0  IDiag  1:
 RMSU=  1.72D-03    CP:  9.88D-01
 E= -1990.81077829740     Delta-E=       -0.513084004676 Rises=F Damp=T
 DIIS: error= 7.08D-03 at cycle   2 NSaved=   2.
 NSaved= 2 IEnMin= 2 EnMin= -1990.81077829740     IErMin= 2 ErrMin= 7.08D-03
 ErrMax= 7.08D-03  0.00D+00 EMaxC= 1.00D-01 BMatC= 9.30D-02 BMatP= 1.24D+00
 IDIUse=3 WtCom= 9.29D-01 WtEn= 7.08D-02
 Coeff-Com: -0.280D-01 0.103D+01
 Coeff-En:   0.000D+00 0.100D+01
 Coeff:     -0.260D-01 0.103D+01
 Gap=     0.261 Goal=   None    Shift=    0.000
 RMSDP=8.59D-04 MaxDP=7.78D-02 DE=-5.13D-01 OVMax= 1.15D-01

 Cycle   3  Pass 0  IDiag  1:
 RMSU=  8.48D-04    CP:  9.81D-01  9.43D-01
 E= -1991.31670982388     Delta-E=       -0.505931526482 Rises=F Damp=F
 DIIS: error= 6.86D-03 at cycle   3 NSaved=   3.
 NSaved= 3 IEnMin= 3 EnMin= -1991.31670982388     IErMin= 3 ErrMin= 6.86D-03
 ErrMax= 6.86D-03  0.00D+00 EMaxC= 1.00D-01 BMatC= 4.99D-02 BMatP= 9.30D-02
 IDIUse=3 WtCom= 9.31D-01 WtEn= 6.86D-02
 Coeff-Com: -0.711D-01 0.441D+00 0.630D+00
 Coeff-En:   0.000D+00 0.000D+00 0.100D+01
 Coeff:     -0.662D-01 0.411D+00 0.655D+00
 Gap=     0.244 Goal=   None    Shift=    0.000
 RMSDP=5.13D-04 MaxDP=3.67D-02 DE=-5.06D-01 OVMax= 6.06D-02

 Cycle   4  Pass 0  IDiag  1:
 RMSU=  3.39D-04    CP:  9.84D-01  1.05D+00  6.02D-01
 E= -1991.34733934280     Delta-E=       -0.030629518921 Rises=F Damp=F
 DIIS: error= 3.93D-03 at cycle   4 NSaved=   4.
 NSaved= 4 IEnMin= 4 EnMin= -1991.34733934280     IErMin= 4 ErrMin= 3.93D-03
 ErrMax= 3.93D-03  0.00D+00 EMaxC= 1.00D-01 BMatC= 1.22D-02 BMatP= 4.99D-02
 IDIUse=3 WtCom= 9.61D-01 WtEn= 3.93D-02
 Coeff-Com: -0.283D-01 0.913D-01 0.358D+00 0.579D+00
 Coeff-En:   0.000D+00 0.000D+00 0.207D+00 0.793D+00
 Coeff:     -0.272D-01 0.877D-01 0.352D+00 0.587D+00
 Gap=     0.227 Goal=   None    Shift=    0.000
 RMSDP=2.06D-04 MaxDP=1.41D-02 DE=-3.06D-02 OVMax= 2.79D-02

 Cycle   5  Pass 0  IDiag  1:
 RMSU=  8.61D-05    CP:  9.83D-01  1.03D+00  7.32D-01  5.62D-01
 E= -1991.35746523902     Delta-E=       -0.010125896212 Rises=F Damp=F
 DIIS: error= 1.01D-03 at cycle   5 NSaved=   5.
 NSaved= 5 IEnMin= 5 EnMin= -1991.35746523902     IErMin= 5 ErrMin= 1.01D-03
 ErrMax= 1.01D-03  0.00D+00 EMaxC= 1.00D-01 BMatC= 5.85D-04 BMatP= 1.22D-02
 IDIUse=3 WtCom= 9.90D-01 WtEn= 1.01D-02
 Coeff-Com: -0.930D-02 0.214D-01 0.134D+00 0.285D+00 0.568D+00
 Coeff-En:   0.000D+00 0.000D+00 0.000D+00 0.000D+00 0.100D+01
 Coeff:     -0.921D-02 0.212D-01 0.133D+00 0.282D+00 0.573D+00
 Gap=     0.227 Goal=   None    Shift=    0.000
 RMSDP=5.09D-05 MaxDP=3.74D-03 DE=-1.01D-02 OVMax= 8.84D-03

 Cycle   6  Pass 0  IDiag  1:
 RMSU=  2.72D-05    CP:  9.83D-01  1.04D+00  7.30D-01  6.34D-01  5.92D-01
 E= -1991.35797365867     Delta-E=       -0.000508419652 Rises=F Damp=F
 DIIS: error= 3.28D-04 at cycle   6 NSaved=   6.
 NSaved= 6 IEnMin= 6 EnMin= -1991.35797365867     IErMin= 6 ErrMin= 3.28D-04
 ErrMax= 3.28D-04  0.00D+00 EMaxC= 1.00D-01 BMatC= 5.86D-05 BMatP= 5.85D-04
 IDIUse=3 WtCom= 9.97D-01 WtEn= 3.28D-03
 Coeff-Com: -0.181D-02 0.185D-02 0.302D-01 0.824D-01 0.293D+00 0.594D+00
 Coeff-En:   0.000D+00 0.000D+00 0.000D+00 0.000D+00 0.258D-02 0.997D+00
 Coeff:     -0.180D-02 0.184D-02 0.301D-01 0.821D-01 0.292D+00 0.595D+00
 Gap=     0.228 Goal=   None    Shift=    0.000
 RMSDP=1.50D-05 MaxDP=8.82D-04 DE=-5.08D-04 OVMax= 2.37D-03

 Cycle   7  Pass 0  IDiag  1:
 RMSU=  9.36D-06    CP:  9.83D-01  1.04D+00  7.33D-01  6.34D-01  6.76D-01
                    CP:  6.76D-01
 E= -1991.35802888968     Delta-E=       -0.000055231009 Rises=F Damp=F
 DIIS: error= 5.19D-05 at cycle   7 NSaved=   7.
 NSaved= 7 IEnMin= 7 EnMin= -1991.35802888968     IErMin= 7 ErrMin= 5.19D-05
 ErrMax= 5.19D-05  0.00D+00 EMaxC= 1.00D-01 BMatC= 3.88D-06 BMatP= 5.86D-05
 IDIUse=1 WtCom= 1.00D+00 WtEn= 0.00D+00
 Coeff-Com:  0.172D-03-0.134D-02-0.129D-02 0.589D-02 0.718D-01 0.255D+00
 Coeff-Com:  0.670D+00
 Coeff:      0.172D-03-0.134D-02-0.129D-02 0.589D-02 0.718D-01 0.255D+00
 Coeff:      0.670D+00
 Gap=     0.228 Goal=   None    Shift=    0.000
 RMSDP=4.44D-06 MaxDP=2.39D-04 DE=-5.52D-05 OVMax= 5.17D-04

 Initial convergence to 1.0D-05 achieved.  Increase integral accuracy.
 Cycle   8  Pass 1  IDiag  1:
 E= -1991.35803755714     Delta-E=       -0.000008667467 Rises=F Damp=F
 DIIS: error= 1.95D-04 at cycle   1 NSaved=   1.
 NSaved= 1 IEnMin= 1 EnMin= -1991.35803755714     IErMin= 1 ErrMin= 1.95D-04
 ErrMax= 1.95D-04  0.00D+00 EMaxC= 1.00D-01 BMatC= 1.32D-05 BMatP= 1.32D-05
 IDIUse=3 WtCom= 9.98D-01 WtEn= 1.95D-03
 Coeff-Com:  0.100D+01
 Coeff-En:   0.100D+01
 Coeff:      0.100D+01
 Gap=     0.228 Goal=   None    Shift=    0.000
 RMSDP=4.44D-06 MaxDP=2.39D-04 DE=-8.67D-06 OVMax= 4.74D-04

 Cycle   9  Pass 1  IDiag  1:
 RMSU=  7.25D-05    CP:  1.00D+00
 E= -1991.35804937336     Delta-E=       -0.000011816216 Rises=F Damp=F
 DIIS: error= 2.18D-05 at cycle   2 NSaved=   2.
 NSaved= 2 IEnMin= 2 EnMin= -1991.35804937336     IErMin= 2 ErrMin= 2.18D-05
 ErrMax= 2.18D-05  0.00D+00 EMaxC= 1.00D-01 BMatC= 7.69D-07 BMatP= 1.32D-05
 IDIUse=1 WtCom= 1.00D+00 WtEn= 0.00D+00
 Coeff-Com:  0.680D-01 0.932D+00
 Coeff:      0.680D-01 0.932D+00
 Gap=     0.228 Goal=   None    Shift=    0.000
 RMSDP=3.82D-06 MaxDP=2.06D-04 DE=-1.18D-05 OVMax= 3.58D-04

 Cycle  10  Pass 1  IDiag  1:
 RMSU=  3.21D-06    CP:  1.00D+00  1.03D+00
 E= -1991.35804903044     Delta-E=        0.000000342924 Rises=F Damp=F
 DIIS: error= 3.60D-05 at cycle   3 NSaved=   3.
 NSaved= 3 IEnMin= 2 EnMin= -1991.35804937336     IErMin= 2 ErrMin= 2.18D-05
 ErrMax= 3.60D-05  0.00D+00 EMaxC= 1.00D-01 BMatC= 1.21D-06 BMatP= 7.69D-07
 IDIUse=1 WtCom= 1.00D+00 WtEn= 0.00D+00
 Coeff-Com: -0.145D-01 0.562D+00 0.453D+00
 Coeff:     -0.145D-01 0.562D+00 0.453D+00
 Gap=     0.228 Goal=   None    Shift=    0.000
 RMSDP=1.81D-06 MaxDP=1.23D-04 DE= 3.43D-07 OVMax= 2.25D-04

 Cycle  11  Pass 1  IDiag  1:
 RMSU=  6.21D-07    CP:  1.00D+00  1.03D+00  4.81D-01
 E= -1991.35805004518     Delta-E=       -0.000001014741 Rises=F Damp=F
 DIIS: error= 4.13D-06 at cycle   4 NSaved=   4.
 NSaved= 4 IEnMin= 4 EnMin= -1991.35805004518     IErMin= 4 ErrMin= 4.13D-06
 ErrMax= 4.13D-06  0.00D+00 EMaxC= 1.00D-01 BMatC= 1.14D-08 BMatP= 7.69D-07
 IDIUse=1 WtCom= 1.00D+00 WtEn= 0.00D+00
 Coeff-Com: -0.811D-02 0.259D+00 0.219D+00 0.530D+00
 Coeff:     -0.811D-02 0.259D+00 0.219D+00 0.530D+00
 Gap=     0.228 Goal=   None    Shift=    0.000
 RMSDP=2.20D-07 MaxDP=1.23D-05 DE=-1.01D-06 OVMax= 3.54D-05

 Cycle  12  Pass 1  IDiag  1:
 RMSU=  1.94D-07    CP:  1.00D+00  1.03D+00  4.99D-01  8.65D-01
 E= -1991.35805005576     Delta-E=       -0.000000010587 Rises=F Damp=F
 DIIS: error= 1.46D-06 at cycle   5 NSaved=   5.
 NSaved= 5 IEnMin= 5 EnMin= -1991.35805005576     IErMin= 5 ErrMin= 1.46D-06
 ErrMax= 1.46D-06  0.00D+00 EMaxC= 1.00D-01 BMatC= 9.29D-10 BMatP= 1.14D-08
 IDIUse=1 WtCom= 1.00D+00 WtEn= 0.00D+00
 Coeff-Com: -0.108D-02 0.203D-01 0.189D-01 0.213D+00 0.749D+00
 Coeff:     -0.108D-02 0.203D-01 0.189D-01 0.213D+00 0.749D+00
 Gap=     0.228 Goal=   None    Shift=    0.000
 RMSDP=8.32D-08 MaxDP=4.82D-06 DE=-1.06D-08 OVMax= 1.01D-05

 Cycle  13  Pass 1  IDiag  1:
 RMSU=  6.35D-08    CP:  1.00D+00  1.03D+00  5.00D-01  9.38D-01  8.69D-01
 E= -1991.35805005671     Delta-E=       -0.000000000941 Rises=F Damp=F
 DIIS: error= 4.66D-07 at cycle   6 NSaved=   6.
 NSaved= 6 IEnMin= 6 EnMin= -1991.35805005671     IErMin= 6 ErrMin= 4.66D-07
 ErrMax= 4.66D-07  0.00D+00 EMaxC= 1.00D-01 BMatC= 2.34D-10 BMatP= 9.29D-10
 IDIUse=1 WtCom= 1.00D+00 WtEn= 0.00D+00
 Coeff-Com:  0.735D-03-0.309D-01-0.257D-01 0.366D-01 0.409D+00 0.610D+00
 Coeff:      0.735D-03-0.309D-01-0.257D-01 0.366D-01 0.409D+00 0.610D+00
 Gap=     0.228 Goal=   None    Shift=    0.000
 RMSDP=3.48D-08 MaxDP=1.86D-06 DE=-9.41D-10 OVMax= 4.99D-06

 Cycle  14  Pass 1  IDiag  1:
 RMSU=  2.46D-08    CP:  1.00D+00  1.03D+00  5.00D-01  9.57D-01  9.51D-01
                    CP:  7.81D-01
 E= -1991.35805005688     Delta-E=       -0.000000000174 Rises=F Damp=F
 DIIS: error= 1.41D-07 at cycle   7 NSaved=   7.
 NSaved= 7 IEnMin= 7 EnMin= -1991.35805005688     IErMin= 7 ErrMin= 1.41D-07
 ErrMax= 1.41D-07  0.00D+00 EMaxC= 1.00D-01 BMatC= 1.55D-11 BMatP= 2.34D-10
 IDIUse=1 WtCom= 1.00D+00 WtEn= 0.00D+00
 Coeff-Com:  0.404D-03-0.150D-01-0.128D-01 0.814D-03 0.115D+00 0.270D+00
 Coeff-Com:  0.641D+00
 Coeff:      0.404D-03-0.150D-01-0.128D-01 0.814D-03 0.115D+00 0.270D+00
 Coeff:      0.641D+00
 Gap=     0.228 Goal=   None    Shift=    0.000
 RMSDP=9.20D-09 MaxDP=5.31D-07 DE=-1.74D-10 OVMax= 1.52D-06

 SCF Done:  E(RM062X) =  -1991.35805006     A.U. after   14 cycles
            NFock= 14  Conv=0.92D-08     -V/T= 2.0076
 KE= 1.976417561940D+03 PE=-1.463113255153D+04 EE= 5.673940547931D+03
 Leave Link  502 at Thu Feb  7 13:48:11 2019, MaxMem=   104857600 cpu:            3579.5 elap:             149.4
 (Enter /home/xinyan/g16/l601.exe)
 Copying SCF densities to generalized density rwf, IOpCl= 0 IROHF=0.

 **********************************************************************

            Population analysis using the SCF density.

 **********************************************************************

 Orbital symmetries:
       Occupied  (A) (A) (A) (A) (A) (A) (A) (A) (A) (A) (A) (A)
                 (A) (A) (A) (A) (A) (A) (A) (A) (A) (A) (A) (A)
                 (A) (A) (A) (A) (A) (A) (A) (A) (A) (A) (A) (A)
                 (A) (A) (A) (A) (A) (A) (A) (A) (A) (A) (A) (A)
                 (A) (A) (A) (A) (A) (A) (A) (A) (A) (A) (A) (A)
                 (A) (A) (A) (A) (A) (A) (A) (A) (A) (A) (A) (A)
                 (A) (A) (A) (A) (A) (A) (A) (A) (A) (A) (A) (A)
                 (A) (A) (A) (A) (A) (A) (A) (A) (A) (A) (A) (A)
                 (A) (A) (A) (A) (A) (A) (A) (A) (A) (A) (A) (A)
                 (A) (A) (A) (A) (A) (A) (A) (A) (A) (A) (A) (A)
                 (A) (A) (A) (A) (A) (A) (A) (A) (A) (A) (A) (A)
                 (A) (A) (A) (A) (A) (A) (A) (A)
       Virtual   (A) (A) (A) (A) (A) (A) (A) (A) (A) (A) (A) (A)
                 (A) (A) (A) (A) (A) (A) (A) (A) (A) (A) (A) (A)
                 (A) (A) (A) (A) (A) (A) (A) (A) (A) (A) (A) (A)
                 (A) (A) (A) (A) (A) (A) (A) (A) (A) (A) (A) (A)
                 (A) (A) (A) (A) (A) (A) (A) (A) (A) (A) (A) (A)
                 (A) (A) (A) (A) (A) (A) (A) (A) (A) (A) (A) (A)
                 (A) (A) (A) (A) (A) (A) (A) (A) (A) (A) (A) (A)
                 (A) (A) (A) (A) (A) (A) (A) (A) (A) (A) (A) (A)
                 (A) (A) (A) (A) (A) (A) (A) (A) (A) (A) (A) (A)
                 (A) (A) (A) (A) (A) (A) (A) (A) (A) (A) (A) (A)
                 (A) (A) (A) (A) (A) (A) (A) (A) (A) (A) (A) (A)
                 (A) (A) (A) (A) (A) (A) (A) (A) (A) (A) (A) (A)
                 (A) (A) (A) (A) (A) (A) (A) (A) (A) (A) (A) (A)
                 (A) (A) (A) (A) (A) (A) (A) (A) (A) (A) (A) (A)
                 (A) (A) (A) (A) (A) (A) (A) (A) (A) (A) (A) (A)
                 (A) (A) (A) (A) (A) (A) (A) (A) (A) (A) (A) (A)
                 (A) (A) (A) (A) (A) (A) (A) (A) (A) (A) (A) (A)
                 (A) (A) (A) (A) (A) (A) (A) (A) (A) (A) (A) (A)
                 (A) (A) (A) (A) (A) (A) (A) (A) (A) (A) (A) (A)
                 (A) (A) (A) (A) (A) (A) (A) (A) (A) (A) (A) (A)
                 (A) (A) (A) (A) (A) (A) (A) (A) (A) (A) (A) (A)
                 (A) (A) (A) (A) (A) (A) (A) (A) (A) (A) (A) (A)
                 (A) (A) (A) (A) (A) (A) (A) (A) (A) (A) (A) (A)
                 (A) (A) (A) (A) (A) (A) (A) (A) (A) (A) (A) (A)
                 (A) (A) (A) (A) (A) (A) (A) (A) (A) (A) (A) (A)
                 (A) (A) (A) (A) (A) (A) (A) (A) (A) (A) (A) (A)
                 (A) (A) (A) (A) (A) (A) (A) (A) (A) (A) (A) (A)
                 (A) (A) (A) (A) (A) (A) (A) (A) (A) (A) (A) (A)
                 (A) (A) (A) (A) (A) (A) (A) (A) (A) (A) (A) (A)
                 (A) (A) (A) (A) (A) (A) (A) (A) (A) (A) (A) (A)
                 (A) (A) (A) (A) (A) (A) (A) (A) (A) (A) (A) (A)
                 (A) (A) (A) (A) (A) (A) (A) (A) (A) (A) (A) (A)
                 (A) (A) (A) (A) (A) (A) (A) (A) (A) (A) (A) (A)
                 (A) (A) (A) (A) (A) (A) (A) (A) (A) (A) (A) (A)
                 (A) (A) (A) (A) (A) (A) (A) (A) (A) (A) (A) (A)
                 (A) (A) (A) (A) (A) (A) (A) (A) (A) (A) (A) (A)
                 (A) (A) (A) (A) (A) (A) (A) (A) (A) (A) (A) (A)
                 (A) (A) (A) (A) (A) (A) (A) (A) (A) (A) (A) (A)
                 (A) (A) (A) (A) (A) (A) (A) (A) (A) (A) (A) (A)
                 (A) (A) (A) (A) (A) (A) (A) (A) (A) (A) (A) (A)
                 (A) (A) (A) (A) (A) (A)
 The electronic state is 1-A.
 Alpha  occ. eigenvalues --  -90.14286 -19.61879 -19.61845 -19.58614 -19.56665
 Alpha  occ. eigenvalues --  -19.51107 -14.85209 -14.80420 -14.75998 -10.63415
 Alpha  occ. eigenvalues --  -10.62788 -10.62240 -10.62164 -10.60794 -10.59450
 Alpha  occ. eigenvalues --  -10.58348 -10.58000 -10.57969 -10.57184 -10.56896
 Alpha  occ. eigenvalues --  -10.56730 -10.55698 -10.55652 -10.55083 -10.54863
 Alpha  occ. eigenvalues --  -10.54847 -10.54749 -10.54748 -10.54598 -10.54417
 Alpha  occ. eigenvalues --  -10.54381 -10.54340 -10.53044 -10.51428 -10.51389
 Alpha  occ. eigenvalues --  -10.49618  -8.45262  -6.37481  -6.37455  -6.37298
 Alpha  occ. eigenvalues --   -1.22104  -1.13603  -1.13416  -1.10357  -1.09324
 Alpha  occ. eigenvalues --   -1.05826  -1.01868  -0.99255  -0.95787  -0.95003
 Alpha  occ. eigenvalues --   -0.93524  -0.90319  -0.88761  -0.85989  -0.85696
 Alpha  occ. eigenvalues --   -0.84831  -0.84740  -0.84186  -0.83065  -0.82760
 Alpha  occ. eigenvalues --   -0.76684  -0.76210  -0.75822  -0.74322  -0.72864
 Alpha  occ. eigenvalues --   -0.71696  -0.68326  -0.68200  -0.67938  -0.67265
 Alpha  occ. eigenvalues --   -0.66717  -0.65258  -0.64857  -0.63533  -0.60532
 Alpha  occ. eigenvalues --   -0.60402  -0.59759  -0.59164  -0.57797  -0.57631
 Alpha  occ. eigenvalues --   -0.57215  -0.56453  -0.55807  -0.55161  -0.54217
 Alpha  occ. eigenvalues --   -0.53583  -0.52691  -0.52510  -0.52488  -0.51914
 Alpha  occ. eigenvalues --   -0.51562  -0.50988  -0.50644  -0.49900  -0.49500
 Alpha  occ. eigenvalues --   -0.49162  -0.48872  -0.48211  -0.48136  -0.47961
 Alpha  occ. eigenvalues --   -0.47709  -0.47491  -0.46945  -0.46399  -0.46097
 Alpha  occ. eigenvalues --   -0.44910  -0.44741  -0.44184  -0.43849  -0.43271
 Alpha  occ. eigenvalues --   -0.42552  -0.42166  -0.41359  -0.41271  -0.41067
 Alpha  occ. eigenvalues --   -0.40901  -0.40516  -0.39990  -0.39778  -0.39257
 Alpha  occ. eigenvalues --   -0.39240  -0.39089  -0.38423  -0.38028  -0.37637
 Alpha  occ. eigenvalues --   -0.37376  -0.36741  -0.36529  -0.35803  -0.34924
 Alpha  occ. eigenvalues --   -0.34396  -0.34017  -0.31676  -0.31167  -0.29784
 Alpha  occ. eigenvalues --   -0.28867  -0.28607  -0.27679  -0.24690  -0.24298
 Alpha virt. eigenvalues --   -0.01524   0.00386   0.03527   0.03733   0.10124
 Alpha virt. eigenvalues --    0.10923   0.11619   0.12263   0.13150   0.13457
 Alpha virt. eigenvalues --    0.14226   0.14503   0.14753   0.15227   0.15597
 Alpha virt. eigenvalues --    0.16053   0.16794   0.16936   0.17172   0.17720
 Alpha virt. eigenvalues --    0.18043   0.18311   0.18430   0.18779   0.18974
 Alpha virt. eigenvalues --    0.19276   0.19730   0.19975   0.20110   0.20253
 Alpha virt. eigenvalues --    0.20644   0.20936   0.21100   0.21510   0.21616
 Alpha virt. eigenvalues --    0.22095   0.22537   0.22827   0.23287   0.23729
 Alpha virt. eigenvalues --    0.23883   0.24222   0.24602   0.24708   0.24850
 Alpha virt. eigenvalues --    0.25277   0.25451   0.25893   0.26300   0.26801
 Alpha virt. eigenvalues --    0.27079   0.27777   0.27869   0.28550   0.28964
 Alpha virt. eigenvalues --    0.29313   0.29397   0.29719   0.30759   0.30907
 Alpha virt. eigenvalues --    0.31268   0.31574   0.32027   0.32486   0.33086
 Alpha virt. eigenvalues --    0.33600   0.34520   0.35309   0.35471   0.35825
 Alpha virt. eigenvalues --    0.36534   0.37425   0.37647   0.37961   0.38831
 Alpha virt. eigenvalues --    0.39940   0.40445   0.40710   0.42818   0.43214
 Alpha virt. eigenvalues --    0.44374   0.44677   0.47096   0.48020   0.48824
 Alpha virt. eigenvalues --    0.49733   0.51139   0.52684   0.53409   0.54921
 Alpha virt. eigenvalues --    0.55150   0.55346   0.56046   0.56618   0.56933
 Alpha virt. eigenvalues --    0.57487   0.58254   0.58587   0.58956   0.59504
 Alpha virt. eigenvalues --    0.59606   0.59874   0.60401   0.60499   0.60594
 Alpha virt. eigenvalues --    0.61124   0.61442   0.62371   0.62575   0.62876
 Alpha virt. eigenvalues --    0.63705   0.64020   0.64503   0.64929   0.65619
 Alpha virt. eigenvalues --    0.66026   0.66512   0.66967   0.67482   0.67917
 Alpha virt. eigenvalues --    0.68320   0.68986   0.69086   0.69998   0.70646
 Alpha virt. eigenvalues --    0.71003   0.71441   0.71778   0.72910   0.73439
 Alpha virt. eigenvalues --    0.73645   0.74294   0.74748   0.74893   0.75781
 Alpha virt. eigenvalues --    0.76558   0.77280   0.77828   0.78660   0.79076
 Alpha virt. eigenvalues --    0.79457   0.79927   0.80216   0.80853   0.81181
 Alpha virt. eigenvalues --    0.81782   0.82112   0.82784   0.83995   0.84665
 Alpha virt. eigenvalues --    0.84815   0.85361   0.85706   0.86046   0.87008
 Alpha virt. eigenvalues --    0.87774   0.88418   0.88986   0.89414   0.89554
 Alpha virt. eigenvalues --    0.89759   0.90106   0.90594   0.91109   0.91261
 Alpha virt. eigenvalues --    0.91626   0.92216   0.92772   0.92958   0.93245
 Alpha virt. eigenvalues --    0.93613   0.94140   0.94661   0.95036   0.95306
 Alpha virt. eigenvalues --    0.95786   0.96100   0.96679   0.96817   0.96999
 Alpha virt. eigenvalues --    0.97244   0.97845   0.98102   0.98382   0.98470
 Alpha virt. eigenvalues --    0.99167   0.99513   0.99793   1.00444   1.00903
 Alpha virt. eigenvalues --    1.01297   1.01860   1.02300   1.02675   1.03043
 Alpha virt. eigenvalues --    1.03191   1.04208   1.04459   1.04586   1.05804
 Alpha virt. eigenvalues --    1.05982   1.06984   1.07764   1.08303   1.09166
 Alpha virt. eigenvalues --    1.10262   1.10754   1.11530   1.11602   1.11899
 Alpha virt. eigenvalues --    1.13349   1.13573   1.14762   1.14989   1.15667
 Alpha virt. eigenvalues --    1.16778   1.17691   1.18322   1.18653   1.18972
 Alpha virt. eigenvalues --    1.19911   1.20620   1.20968   1.21673   1.22129
 Alpha virt. eigenvalues --    1.22140   1.23659   1.24110   1.25074   1.25534
 Alpha virt. eigenvalues --    1.26082   1.27559   1.28635   1.29376   1.30341
 Alpha virt. eigenvalues --    1.31286   1.31493   1.32115   1.32846   1.33579
 Alpha virt. eigenvalues --    1.33854   1.34462   1.35232   1.36268   1.37073
 Alpha virt. eigenvalues --    1.37137   1.38397   1.38979   1.40442   1.41231
 Alpha virt. eigenvalues --    1.41820   1.42474   1.43559   1.44478   1.46364
 Alpha virt. eigenvalues --    1.47338   1.47926   1.48408   1.49187   1.49876
 Alpha virt. eigenvalues --    1.51114   1.51841   1.52436   1.52812   1.54404
 Alpha virt. eigenvalues --    1.54909   1.55086   1.55986   1.57210   1.57237
 Alpha virt. eigenvalues --    1.57504   1.58407   1.60459   1.60927   1.61222
 Alpha virt. eigenvalues --    1.61886   1.62747   1.63450   1.65541   1.67423
 Alpha virt. eigenvalues --    1.69067   1.69649   1.70168   1.71980   1.72599
 Alpha virt. eigenvalues --    1.74181   1.74751   1.75954   1.77158   1.77804
 Alpha virt. eigenvalues --    1.78498   1.79650   1.80459   1.80998   1.81991
 Alpha virt. eigenvalues --    1.84274   1.84377   1.85220   1.85772   1.85816
 Alpha virt. eigenvalues --    1.86363   1.87118   1.87629   1.87904   1.88819
 Alpha virt. eigenvalues --    1.89836   1.90097   1.90304   1.90830   1.91906
 Alpha virt. eigenvalues --    1.92672   1.93748   1.94250   1.94698   1.94937
 Alpha virt. eigenvalues --    1.95387   1.95939   1.96577   1.97167   1.97660
 Alpha virt. eigenvalues --    1.98731   1.99090   1.99382   2.00010   2.00870
 Alpha virt. eigenvalues --    2.01806   2.02150   2.02403   2.02766   2.04202
 Alpha virt. eigenvalues --    2.04733   2.06037   2.06259   2.07087   2.07353
 Alpha virt. eigenvalues --    2.07630   2.08222   2.08755   2.09297   2.09528
 Alpha virt. eigenvalues --    2.09886   2.10628   2.11756   2.12012   2.12896
 Alpha virt. eigenvalues --    2.12993   2.14232   2.14433   2.15163   2.15825
 Alpha virt. eigenvalues --    2.16112   2.16498   2.17255   2.18820   2.19002
 Alpha virt. eigenvalues --    2.19886   2.20254   2.20695   2.21456   2.22314
 Alpha virt. eigenvalues --    2.23116   2.23384   2.23723   2.23732   2.24535
 Alpha virt. eigenvalues --    2.25382   2.25700   2.26274   2.27474   2.28328
 Alpha virt. eigenvalues --    2.29094   2.30019   2.30710   2.30928   2.31348
 Alpha virt. eigenvalues --    2.32162   2.33972   2.34636   2.35163   2.35586
 Alpha virt. eigenvalues --    2.35995   2.37395   2.37497   2.38512   2.38811
 Alpha virt. eigenvalues --    2.38954   2.40388   2.40989   2.41377   2.42670
 Alpha virt. eigenvalues --    2.43350   2.44404   2.45414   2.46112   2.46986
 Alpha virt. eigenvalues --    2.49397   2.50477   2.51830   2.52224   2.52649
 Alpha virt. eigenvalues --    2.54231   2.54401   2.55826   2.56923   2.59941
 Alpha virt. eigenvalues --    2.60902   2.61840   2.62285   2.63234   2.63706
 Alpha virt. eigenvalues --    2.64629   2.64769   2.65653   2.67173   2.68304
 Alpha virt. eigenvalues --    2.68867   2.69568   2.70197   2.71693   2.72755
 Alpha virt. eigenvalues --    2.73462   2.74468   2.76208   2.76657   2.77589
 Alpha virt. eigenvalues --    2.79519   2.80239   2.80558   2.80737   2.81595
 Alpha virt. eigenvalues --    2.83506   2.85390   2.86123   2.87026   2.88383
 Alpha virt. eigenvalues --    2.89273   2.91062   2.92559   2.93912   2.96900
 Alpha virt. eigenvalues --    2.99700   3.00372   3.03142   3.05295   3.10565
 Alpha virt. eigenvalues --    3.14758   3.16435   3.23881   3.41328   3.42759
 Alpha virt. eigenvalues --    3.96230   4.01944   4.04613   4.09353   4.10949
 Alpha virt. eigenvalues --    4.15630   4.16947   4.17814   4.18560   4.19625
 Alpha virt. eigenvalues --    4.21012   4.23028   4.24417   4.26405   4.27640
 Alpha virt. eigenvalues --    4.29555   4.32512   4.33120   4.34519   4.35081
 Alpha virt. eigenvalues --    4.40054   4.40632   4.41809   4.43706   4.47115
 Alpha virt. eigenvalues --    4.49243   4.55632   4.58158   4.59333   4.61284
 Alpha virt. eigenvalues --    4.63707   4.66186   4.73662   4.75645   4.76722
 Alpha virt. eigenvalues --    4.80133
          Condensed to atoms (all electrons):
 Mulliken charges:
               1
     1  C   -0.306296
     2  C   -0.307249
     3  C   -0.309147
     4  C   -0.060268
     5  C    0.055999
     6  C   -0.311033
     7  H    0.174239
     8  H    0.162974
     9  H    0.165737
    10  H    0.150804
    11  H    0.163709
    12  H    0.209015
    13  H    0.173554
    14  H    0.193803
    15  H    0.163478
    16  H    0.154567
    17  N   -0.431128
    18  C    0.067550
    19  C    0.064642
    20  C   -0.201441
    21  H    0.206143
    22  C   -0.209737
    23  H    0.244663
    24  C    0.446042
    25  H    0.192296
    26  H    0.211398
    27  N   -0.525360
    28  C   -0.170026
    29  H    0.169633
    30  H    0.227861
    31  C   -0.154439
    32  H    0.164654
    33  H    0.207085
    34  N   -0.813521
    35  S    1.251861
    36  O   -0.610543
    37  O   -0.604606
    38  C    0.081802
    39  C   -0.186357
    40  C   -0.190112
    41  C   -0.171721
    42  C   -0.163853
    43  C   -0.211702
    44  H    0.214754
    45  H    0.140383
    46  H    0.154957
    47  H    0.158583
    48  H    0.152401
    49  O   -0.552996
    50  H    0.447238
    51  C    0.722591
    52  O   -0.720360
    53  O   -0.717554
    54  H    0.443059
    55  C   -0.338198
    56  H    0.148087
    57  H    0.151199
    58  C   -0.089547
    59  H    0.138973
    60  H    0.148080
    61  C   -0.663523
    62  H    0.275165
    63  H    0.196538
    64  H    0.217876
    65  C   -0.291134
    66  H    0.133745
    67  H    0.145592
    68  C   -0.473223
    69  H    0.148691
    70  H    0.153793
    71  H    0.146178
    72  C   -0.332084
    73  H    0.186748
    74  H    0.162695
    75  C   -0.342750
    76  H    0.198320
    77  H    0.170754
 Sum of Mulliken charges =  -0.00000
 Mulliken charges with hydrogens summed into heavy atoms:
               1
     1  C    0.008217
     2  C    0.021462
     3  C    0.019659
     4  C    0.148747
     5  C    0.229553
     6  C    0.046248
    17  N   -0.431128
    18  C    0.273693
    19  C    0.309305
    20  C   -0.009145
    22  C    0.001661
    24  C    0.446042
    27  N   -0.525360
    28  C    0.227468
    31  C    0.217299
    34  N   -0.366282
    35  S    1.251861
    36  O   -0.610543
    37  O   -0.604606
    38  C    0.081802
    39  C    0.028397
    40  C   -0.049730
    41  C   -0.016764
    42  C   -0.005270
    43  C   -0.059301
    49  O   -0.552996
    51  C    0.722591
    52  O   -0.720360
    53  O   -0.274495
    55  C   -0.038913
    58  C    0.197506
    61  C    0.026056
    65  C   -0.011797
    68  C   -0.024561
    72  C    0.017358
    75  C    0.026324
 Electronic spatial extent (au):  <R**2>=          14349.9182
 Charge=             -0.0000 electrons
 Dipole moment (field-independent basis, Debye):
    X=             -2.7200    Y=             -2.0234    Z=             -6.2809  Tot=              7.1374
 Quadrupole moment (field-independent basis, Debye-Ang):
   XX=           -206.1373   YY=           -222.3170   ZZ=           -220.1223
   XY=            -12.5658   XZ=             -5.0806   YZ=             10.1301
 Traceless Quadrupole moment (field-independent basis, Debye-Ang):
   XX=             10.0549   YY=             -6.1248   ZZ=             -3.9301
   XY=            -12.5658   XZ=             -5.0806   YZ=             10.1301
 Octapole moment (field-independent basis, Debye-Ang**2):
  XXX=             12.7103  YYY=            -52.8571  ZZZ=             11.8600  XYY=              8.4768
  XXY=            -25.5656  XXZ=            -39.5743  XZZ=            -23.4086  YZZ=             13.3204
  YYZ=             19.1240  XYZ=            -19.1724
 Hexadecapole moment (field-independent basis, Debye-Ang**3):
 XXXX=          -9829.2680 YYYY=          -5442.4115 ZZZZ=          -3554.7535 XXXY=           -204.1661
 XXXZ=             -8.5241 YYYX=            -77.1919 YYYZ=             52.1324 ZZZX=           -102.3699
 ZZZY=             -0.6061 XXYY=          -2555.9343 XXZZ=          -2323.7140 YYZZ=          -1604.8625
 XXYZ=             46.1646 YYXZ=             48.4334 ZZXY=            -54.0381
 N-N= 4.989416391598D+03 E-N=-1.463113259347D+04  KE= 1.976417561940D+03
 No NMR shielding tensors so no spin-rotation constants.
 Leave Link  601 at Thu Feb  7 13:48:12 2019, MaxMem=   104857600 cpu:              27.0 elap:               1.3
 (Enter /home/xinyan/g16/l701.exe)
 ... and contract with generalized density number  0.
 Compute integral first derivatives.
 R6Disp: Adding Grimme-D3 dispersion energy 1st derivatives to the gradient.
 Leave Link  701 at Thu Feb  7 13:48:13 2019, MaxMem=   104857600 cpu:              22.2 elap:               1.0
 (Enter /home/xinyan/g16/l702.exe)
 L702 exits ... SP integral derivatives will be done elsewhere.
 Leave Link  702 at Thu Feb  7 13:48:13 2019, MaxMem=   104857600 cpu:               1.4 elap:               0.1
 (Enter /home/xinyan/g16/l703.exe)
 Integral derivatives from FoFJK, PRISM(SPDF).
 Compute integral first derivatives, UseDBF=F ICtDFT=           0.
 Calling FoFJK, ICntrl=      2127 FMM=T ISym2X=0 I1Cent= 0 IOpClX= 0 NMat=1 NMatS=1 NMatT=0.
 FoFJK:  IHMeth= 1 ICntrl=    2127 DoSepK=F KAlg= 0 I1Cent=           0 FoldK=F
 IRaf=         0 NMat=       1 IRICut=       1 DoRegI=T DoRafI=F ISym2E= 0 IDoP0=0 IntGTp=1.
 FoFCou: FMM=T IPFlag=           0 FMFlag=      100000 FMFlg1=        2001
         NFxFlg=           0 DoJE=F BraDBF=F KetDBF=F FulRan=T
         wScrn=  0.000000 ICntrl=      2127 IOpCl=  0 I1Cent=           0 NGrid=           0
         NMat0=    1 NMatS0=      1 NMatT0=    0 NMatD0=    1 NMtDS0=    0 NMtDT0=    0
 Symmetry not used in FoFCou.
 FMM levels:  10  Number of levels for PrismC:   9
 Leave Link  703 at Thu Feb  7 13:48:48 2019, MaxMem=   104857600 cpu:             828.9 elap:              35.6
 (Enter /home/xinyan/g16/l716.exe)
 Dipole        =-1.07011183D+00-7.96060850D-01-2.47111400D+00
 ***** Axes restored to original set *****
 -------------------------------------------------------------------
 Center     Atomic                   Forces (Hartrees/Bohr)
 Number     Number              X              Y              Z
 -------------------------------------------------------------------
      1        6           0.000031902   -0.000010423   -0.000010567
      2        6           0.000034152    0.000013880    0.000024828
      3        6           0.000024808    0.000014652    0.000006092
      4        6           0.000025340    0.000014838   -0.000032786
      5        6           0.000047319   -0.000015277   -0.000068013
      6        6           0.000014317   -0.000006495    0.000012329
      7        1           0.000009365    0.000012086   -0.000028321
      8        1           0.000010671    0.000008141   -0.000025467
      9        1           0.000017170    0.000024433   -0.000013039
     10        1           0.000028968    0.000033019   -0.000015420
     11        1           0.000020040    0.000002032    0.000007670
     12        1           0.000014553   -0.000057906    0.000048582
     13        1           0.000023451   -0.000034475    0.000007040
     14        1           0.000020947   -0.000015556   -0.000011844
     15        1           0.000043796   -0.000014284    0.000005738
     16        1           0.000008642    0.000011089   -0.000028831
     17        7           0.000006095    0.000013301   -0.000015064
     18        6           0.000009173   -0.000012941   -0.000017745
     19        6           0.000004599    0.000000604    0.000010553
     20        6           0.000009494   -0.000006812   -0.000011032
     21        1           0.000016795   -0.000016954   -0.000022291
     22        6           0.000014758   -0.000008417    0.000024601
     23        1          -0.000005669   -0.000022484   -0.000041542
     24        6           0.000013763   -0.000023306    0.000019159
     25        1           0.000030038    0.000005704   -0.000000110
     26        1           0.000014262    0.000004543    0.000009699
     27        7           0.000016432    0.000052110    0.000007781
     28        6           0.000002514    0.000027156    0.000047966
     29        1           0.000004737    0.000031262    0.000057894
     30        1          -0.000003970    0.000052721    0.000041522
     31        6           0.000003735   -0.000008022    0.000011814
     32        1           0.000012439    0.000007281    0.000031658
     33        1           0.000004693    0.000014057    0.000032889
     34        7          -0.000010857   -0.000024867   -0.000023423
     35       16           0.000065707   -0.000041624   -0.000013334
     36        8           0.000009043   -0.000056218   -0.000094656
     37        8           0.000000238   -0.000024612   -0.000030509
     38        6          -0.000012206    0.000044050    0.000037814
     39        6          -0.000020811    0.000071395    0.000007310
     40        6          -0.000053867    0.000057647    0.000031076
     41        6          -0.000025541    0.000031623    0.000032194
     42        6          -0.000039255    0.000007579    0.000080120
     43        6          -0.000031732    0.000034427    0.000047487
     44        1           0.000003310    0.000024408   -0.000002128
     45        1          -0.000029748    0.000062997    0.000013048
     46        1          -0.000046265    0.000045176    0.000053694
     47        1          -0.000036297    0.000013251    0.000065955
     48        1          -0.000026553   -0.000002766    0.000045564
     49        8          -0.000131081    0.000046286    0.000168527
     50        1          -0.000011740   -0.000081958   -0.000038554
     51        6           0.000070132    0.000000538   -0.000011795
     52        8          -0.000148525   -0.000065690   -0.000079611
     53        8          -0.000021896   -0.000003410    0.000026796
     54        1           0.000017624    0.000074512    0.000043133
     55        6          -0.000015170   -0.000001811   -0.000060981
     56        1           0.000018658    0.000041887    0.000003063
     57        1          -0.000012768   -0.000028854   -0.000008687
     58        6          -0.000012758    0.000018947   -0.000016033
     59        1          -0.000005885    0.000025877    0.000038974
     60        1           0.000012035    0.000020258   -0.000001010
     61        6          -0.000057395   -0.000022980    0.000006636
     62        1           0.000023203    0.000058730   -0.000024509
     63        1          -0.000039657   -0.000046656   -0.000033152
     64        1          -0.000046464   -0.000033297   -0.000017860
     65        6          -0.000476978   -0.000041109   -0.000573415
     66        1          -0.000164371    0.000450303    0.000452207
     67        1           0.000481752   -0.000315196    0.000086306
     68        6          -0.000380226   -0.000227913   -0.000502551
     69        1           0.000074241   -0.000153516   -0.000118817
     70        1           0.000156220    0.000245180    0.000243227
     71        1           0.000365466   -0.000458273   -0.000116154
     72        6           0.000006935    0.000044442    0.000037065
     73        1          -0.000012423    0.000053941    0.000053768
     74        1           0.000008886    0.000028612    0.000073038
     75        6          -0.000030550   -0.000025085    0.000043282
     76        1           0.000043241    0.000057320   -0.000003406
     77        1           0.000014996    0.000006900    0.000014561
 -------------------------------------------------------------------
 Cartesian Forces:  Max     0.000573415 RMS     0.000106289
 Z-matrix is all fixed cartesians, so copy forces.
 Leave Link  716 at Thu Feb  7 13:48:49 2019, MaxMem=   104857600 cpu:               2.4 elap:               0.1
 (Enter /home/xinyan/g16/l103.exe)

 GradGradGradGradGradGradGradGradGradGradGradGradGradGradGradGradGradGrad
 Berny optimization.
 Search for a local minimum.
 Step number   1 out of a maximum of    2
 All quantities printed in internal units (Hartrees-Bohrs-Radians)
 Second derivative matrix not updated -- first step.
 ITU=  0
     Eigenvalues ---   -0.00000   0.00000   0.00000   0.00000   0.00000
     Eigenvalues ---    0.00000   0.00006   0.00012   0.00018   0.00021
     Eigenvalues ---    0.00037   0.00038   0.00084   0.00093   0.00114
     Eigenvalues ---    0.00136   0.00140   0.00204   0.00234   0.00294
     Eigenvalues ---    0.00392   0.00407   0.00449   0.00500   0.00589
     Eigenvalues ---    0.00610   0.00611   0.00695   0.00710   0.00847
     Eigenvalues ---    0.00965   0.01121   0.01159   0.01478   0.01654
     Eigenvalues ---    0.01677   0.01889   0.01920   0.02042   0.02157
     Eigenvalues ---    0.02293   0.02305   0.02445   0.02531   0.02876
     Eigenvalues ---    0.02971   0.03077   0.03112   0.03218   0.03451
     Eigenvalues ---    0.03538   0.03717   0.03893   0.04196   0.04317
     Eigenvalues ---    0.04368   0.04800   0.04844   0.04864   0.04925
     Eigenvalues ---    0.05025   0.05068   0.05111   0.05113   0.05150
     Eigenvalues ---    0.05184   0.05259   0.05368   0.05467   0.05592
     Eigenvalues ---    0.05646   0.05669   0.05711   0.05744   0.05792
     Eigenvalues ---    0.06016   0.06145   0.06298   0.06523   0.06566
     Eigenvalues ---    0.06832   0.06850   0.06971   0.07023   0.07099
     Eigenvalues ---    0.07145   0.07244   0.07269   0.07329   0.07383
     Eigenvalues ---    0.07643   0.07808   0.07860   0.07950   0.08086
     Eigenvalues ---    0.08464   0.08533   0.08831   0.09030   0.09710
     Eigenvalues ---    0.09764   0.10162   0.10464   0.11259   0.11521
     Eigenvalues ---    0.11838   0.12132   0.12612   0.12848   0.12895
     Eigenvalues ---    0.12951   0.13028   0.13362   0.13683   0.13931
     Eigenvalues ---    0.14131   0.14413   0.14653   0.15683   0.15769
     Eigenvalues ---    0.16008   0.16110   0.16860   0.16961   0.16969
     Eigenvalues ---    0.17260   0.17301   0.17778   0.17878   0.19573
     Eigenvalues ---    0.19691   0.20339   0.20629   0.21597   0.21691
     Eigenvalues ---    0.23068   0.23352   0.23847   0.24811   0.26381
     Eigenvalues ---    0.27464   0.28606   0.29512   0.30043   0.30647
     Eigenvalues ---    0.31428   0.32283   0.34033   0.34745   0.36303
     Eigenvalues ---    0.36685   0.39408   0.40014   0.41205   0.43095
     Eigenvalues ---    0.43535   0.44550   0.48117   0.49037   0.50148
     Eigenvalues ---    0.53018   0.56790   0.57591   0.60108   0.64784
     Eigenvalues ---    0.65393   0.66336   0.67342   0.68222   0.68756
     Eigenvalues ---    0.70487   0.77625   0.78104   0.78531   0.81269
     Eigenvalues ---    0.82998   0.83344   0.85604   0.86315   0.87300
     Eigenvalues ---    0.88050   0.88683   0.90608   0.91307   0.93923
     Eigenvalues ---    0.94400   0.94787   0.94915   0.95679   0.96362
     Eigenvalues ---    0.97917   0.97988   0.99484   1.00412   1.00536
     Eigenvalues ---    1.00793   1.03941   1.04290   1.04499   1.06143
     Eigenvalues ---    1.06363   1.06776   1.07139   1.08752   1.09144
     Eigenvalues ---    1.13201   1.15698   1.15741   1.17088   1.19802
     Eigenvalues ---    1.21193   1.24106   1.26176   1.27745   1.37129
     Eigenvalues ---    1.47236   1.53547   1.57870   1.58311   1.58882
     Eigenvalues ---    1.59576   1.66930   1.72961   1.84225   2.34519
 Eigenvalue     1 is  -2.22D-16 should be greater than     0.000000 Eigenvector:
                          Y71       Y69       Y68       Y70       Y57
   1                    0.13527   0.13527   0.13527   0.13527   0.13527
                          Y66       Y65       Y55       Y56       Y53
   1                    0.13527   0.13527   0.13527   0.13527   0.13527
 Eigenvalue     2 is   5.46D-08 Eigenvector:
                          Y46       X45       Y47       X52       Y41
   1                    0.16884  -0.15209   0.14522  -0.14229   0.14211
                          X54       X40       X46       X44       Y73
   1                   -0.13518  -0.13482  -0.13358  -0.13207  -0.13064
 Eigenvalue     3 is   6.89D-08 Eigenvector:
                          Y46       Z47       Z46       X54       Z42
   1                    0.19249  -0.19052  -0.17728  -0.17203  -0.16378
                          Z41       Y47       X53       Y41       X46
   1                   -0.15651   0.15577  -0.15525   0.15200   0.14864
 Eigenvalue     4 is   1.62D-07 Eigenvector:
                          Z77       Z76       Z57       Z71       Z75
   1                    0.18809   0.18125  -0.17238  -0.17036   0.16136
                          Z53       Y64       Z54       Z33       Z66
   1                   -0.15809  -0.15630  -0.15564   0.15059  -0.14719
 Eigenvalue     5 is   2.52D-07 Eigenvector:
                          Z47       Y46       Y64       Y9        Y47
   1                    0.18254   0.17528   0.16002  -0.15782   0.14928
                          Z42       Z48       Y71       Y7        Z46
   1                    0.14583   0.14311  -0.14179  -0.13977   0.13860
 Eigenvalue     6 is   4.72D-07 Eigenvector:
                          Y69       Z54       Y48       Y59       Y71
   1                    0.25080  -0.24604  -0.23224  -0.23055   0.19650
                          Y66       Y45       Z53       Z70       Z69
   1                    0.19020   0.18601  -0.18392   0.18066   0.17041
 Eigenvalue     7 is   5.68D-05 Eigenvector:
                          X69       X45       X70       X46       Z70
   1                    0.26853  -0.23516   0.22457  -0.22337   0.21518
                          Z69       X68       X67       X40       Z68
   1                    0.21438   0.20682   0.19721  -0.18109   0.17616
 Quadratic step=4.471D+00 exceeds max=3.000D-01 adjusted using Lamda=-1.666D-03.
 Angle between NR and scaled steps=  21.74 degrees.
 Angle between quadratic step and forces=  68.56 degrees.
 Linear search not attempted -- first point.
 B after Tr=    -0.000621    0.000481    0.000813
         Rot=    1.000000   -0.000167    0.000072   -0.000131 Ang=  -0.03 deg.
 Variable       Old X    -DE/DX   Delta X   Delta X   Delta X     New X
                                 (Linear)    (Quad)   (Total)
    X1       -9.27572   0.00003   0.00000   0.01288   0.01225  -9.26347
    Y1        0.47013  -0.00001   0.00000   0.00203   0.00037   0.47049
    Z1       -0.80922  -0.00001   0.00000  -0.00624  -0.00660  -0.81582
    X2       -9.63390   0.00003   0.00000   0.00951   0.00974  -9.62416
    Y2       -1.94285   0.00001   0.00000   0.00402   0.00277  -1.94007
    Z2       -2.36713   0.00002   0.00000  -0.00861  -0.00983  -2.37696
    X3       -7.12058   0.00002   0.00000   0.00829   0.00891  -7.11167
    Y3       -2.80810   0.00001   0.00000   0.00017  -0.00003  -2.80812
    Z3       -3.52209   0.00001   0.00000  -0.00881  -0.00997  -3.53206
    X4       -5.22908   0.00003   0.00000   0.00690   0.00733  -5.22175
    Y4       -3.24704   0.00001   0.00000  -0.00453  -0.00495  -3.25199
    Z4       -1.39445  -0.00003   0.00000  -0.00853  -0.00956  -1.40401
    X5       -4.79036   0.00005   0.00000   0.01036   0.00993  -4.78043
    Y5       -0.79138  -0.00002   0.00000  -0.00600  -0.00682  -0.79820
    Z5        0.14135  -0.00007   0.00000  -0.00797  -0.00811   0.13324
    X6       -7.29610   0.00001   0.00000   0.01215   0.01132  -7.28478
    Y6        0.11728  -0.00001   0.00000  -0.00320  -0.00505   0.11223
    Z6        1.27396   0.00001   0.00000  -0.00666  -0.00686   1.26710
    X7       -7.35668   0.00001   0.00000   0.00542   0.00665  -7.35003
    Y7       -4.53587   0.00001   0.00000   0.00146   0.00157  -4.53430
    Z7       -4.63678  -0.00003   0.00000  -0.01018  -0.01195  -4.64873
    X8      -10.38204   0.00001   0.00000   0.00636   0.00681 -10.37523
    Y8       -3.45121   0.00001   0.00000   0.00426   0.00242  -3.44879
    Z8       -1.15470  -0.00003   0.00000  -0.01027  -0.01211  -1.16681
    X9      -11.01954   0.00002   0.00000   0.01048   0.01084 -11.00870
    Y9       -1.63376   0.00002   0.00000   0.00797   0.00687  -1.62689
    Z9       -3.87124  -0.00001   0.00000  -0.00868  -0.01000  -3.88124
   X10       -8.66695   0.00003   0.00000   0.01505   0.01420  -8.65274
   Y10        2.00326   0.00003   0.00000   0.00271   0.00162   2.00488
   Z10       -2.06783  -0.00002   0.00000  -0.00449  -0.00426  -2.07209
   X11      -11.07780   0.00002   0.00000   0.01374   0.01284 -11.06496
   Y11        1.04882   0.00000   0.00000   0.00361   0.00119   1.05001
   Z11        0.02636   0.00001   0.00000  -0.00540  -0.00583   0.02053
   X12       -5.96248   0.00001   0.00000   0.00455   0.00518  -5.95731
   Y12       -4.69911  -0.00006   0.00000  -0.00388  -0.00492  -4.70402
   Z12       -0.11765   0.00005   0.00000  -0.00879  -0.01041  -0.12807
   X13       -4.16116   0.00002   0.00000   0.01263   0.01201  -4.14915
   Y13        0.65591  -0.00003   0.00000  -0.00624  -0.00643   0.64947
   Z13       -1.20442   0.00001   0.00000  -0.00703  -0.00660  -1.21102
   X14       -7.97081   0.00002   0.00000   0.01016   0.00948  -7.96132
   Y14       -1.25767  -0.00002   0.00000  -0.00371  -0.00620  -1.26387
   Z14        2.66555  -0.00001   0.00000  -0.00811  -0.00887   2.65668
   X15       -6.94833   0.00004   0.00000   0.01539   0.01394  -6.93439
   Y15        1.90847  -0.00001   0.00000  -0.00491  -0.00699   1.90148
   Z15        2.25112   0.00001   0.00000  -0.00464  -0.00419   2.24693
   X16       -6.44096   0.00001   0.00000   0.01102   0.01144  -6.42953
   Y16       -1.31712   0.00001   0.00000  -0.00006   0.00035  -1.31677
   Z16       -4.79624  -0.00003   0.00000  -0.00769  -0.00825  -4.80448
   X17       -2.72546   0.00001   0.00000   0.00677   0.00757  -2.71789
   Y17       -4.15774   0.00001   0.00000  -0.00681  -0.00629  -4.16403
   Z17       -2.23264  -0.00002   0.00000  -0.00603  -0.00701  -2.23964
   X18       -1.40155   0.00001   0.00000   0.00924   0.00994  -1.39161
   Y18       -2.82924  -0.00001   0.00000  -0.00870  -0.00725  -2.83649
   Z18       -3.98999  -0.00002   0.00000  -0.00561  -0.00594  -3.99593
   X19       -1.43634   0.00000   0.00000   0.00464   0.00560  -1.43074
   Y19       -5.70319   0.00000   0.00000  -0.00402  -0.00370  -5.70689
   Z19       -0.63502   0.00001   0.00000  -0.00161  -0.00291  -0.63793
   X20        1.16216   0.00001   0.00000   0.00971   0.01046   1.17262
   Y20       -2.93437  -0.00001   0.00000  -0.00652  -0.00434  -2.93871
   Z20       -4.14561  -0.00001   0.00000   0.00034   0.00034  -4.14527
   X21       -2.50207   0.00002   0.00000   0.01085   0.01141  -2.49067
   Y21       -1.61883  -0.00002   0.00000  -0.01136  -0.00978  -1.62862
   Z21       -5.21986  -0.00002   0.00000  -0.00968  -0.00977  -5.22963
   X22        1.12786   0.00001   0.00000   0.00492   0.00594   1.13380
   Y22       -5.88455  -0.00001   0.00000  -0.00063   0.00036  -5.88419
   Z22       -0.65453   0.00002   0.00000   0.00533   0.00434  -0.65019
   X23       -2.57205  -0.00001   0.00000   0.00222   0.00324  -2.56881
   Y23       -6.68417  -0.00002   0.00000  -0.00365  -0.00410  -6.68827
   Z23        0.76114  -0.00004   0.00000  -0.00336  -0.00515   0.75599
   X24        2.55831   0.00001   0.00000   0.00683   0.00766   2.56598
   Y24       -4.31058  -0.00002   0.00000  -0.00079   0.00113  -4.30945
   Z24       -2.29309   0.00002   0.00000   0.00687   0.00661  -2.28648
   X25        2.11222   0.00003   0.00000   0.01192   0.01258   2.12481
   Y25       -1.82249   0.00001   0.00000  -0.00771  -0.00481  -1.82730
   Z25       -5.57360  -0.00000   0.00000   0.00083   0.00134  -5.57226
   X26        2.02273   0.00001   0.00000   0.00293   0.00404   2.02677
   Y26       -7.04422   0.00000   0.00000   0.00262   0.00337  -7.04085
   Z26        0.76853   0.00001   0.00000   0.00924   0.00799   0.77652
   X27        5.05464   0.00002   0.00000   0.00592   0.00668   5.06132
   Y27       -4.13406   0.00005   0.00000   0.00453   0.00703  -4.12702
   Z27       -2.10888   0.00001   0.00000   0.01409   0.01425  -2.09463
   X28        6.40549   0.00000   0.00000   0.00062   0.00130   6.40679
   Y28       -5.08231   0.00003   0.00000   0.01502   0.01713  -5.06517
   Z28        0.12729   0.00005   0.00000   0.02179   0.02184   0.14913
   X29        6.16980   0.00000   0.00000   0.00217   0.00336   6.17317
   Y29       -7.12701   0.00003   0.00000   0.01556   0.01755  -7.10946
   Z29        0.31001   0.00006   0.00000   0.02974   0.02906   0.33907
   X30        5.64454  -0.00000   0.00000  -0.00494  -0.00475   5.63979
   Y30       -4.10953   0.00005   0.00000   0.02130   0.02265  -4.08688
   Z30        1.79917   0.00004   0.00000   0.01568   0.01594   1.81511
   X31        6.45653   0.00000   0.00000   0.00599   0.00639   6.46292
   Y31       -2.06944  -0.00001   0.00000   0.00268   0.00596  -2.06347
   Z31       -3.33013   0.00001   0.00000   0.01124   0.01229  -3.31784
   X32        6.94952   0.00001   0.00000   0.00981   0.01063   6.96015
   Y32       -2.59960   0.00001   0.00000  -0.00220   0.00186  -2.59774
   Z32       -5.27256   0.00003   0.00000   0.01357   0.01451  -5.25805
   X33        5.27407   0.00000   0.00000   0.00433   0.00428   5.27836
   Y33       -0.37515   0.00001   0.00000   0.00156   0.00454  -0.37061
   Z33       -3.32745   0.00003   0.00000   0.00463   0.00608  -3.32137
   X34       -2.70142  -0.00001   0.00000   0.00924   0.00862  -2.69281
   Y34       -1.01648  -0.00002   0.00000  -0.01004  -0.01091  -1.02739
   Z34        1.91478  -0.00002   0.00000  -0.00770  -0.00762   1.90716
   X35       -2.83155   0.00007   0.00000   0.00521   0.00464  -2.82691
   Y35       -2.67665  -0.00004   0.00000  -0.01248  -0.01425  -2.69089
   Z35        4.51095  -0.00001   0.00000  -0.00969  -0.01018   4.50076
   X36       -5.12917   0.00001   0.00000   0.00711   0.00696  -5.12221
   Y36       -4.22250  -0.00006   0.00000  -0.01494  -0.01727  -4.23977
   Z36        4.43024  -0.00009   0.00000  -0.01756  -0.01890   4.41133
   X37       -0.41359   0.00000   0.00000   0.00578   0.00550  -0.40809
   Y37       -3.97974  -0.00002   0.00000  -0.01021  -0.01146  -3.99120
   Z37        4.85444  -0.00003   0.00000  -0.00516  -0.00574   4.84870
   X38       -1.31782  -0.00001   0.00000  -0.00857  -0.01047  -1.32829
   Y38        4.62458   0.00004   0.00000   0.01925   0.01923   4.64381
   Z38        0.43611   0.00004   0.00000   0.01511   0.01728   0.45340
   X39       -0.37704  -0.00002   0.00000  -0.01196  -0.01329  -0.39033
   Y39        3.72609   0.00007   0.00000   0.02624   0.02724   3.75333
   Z39       -1.87597   0.00001   0.00000   0.01090   0.01291  -1.86306
   X40       -1.80059  -0.00005   0.00000  -0.01811  -0.01918  -1.81977
   Y40        3.94503   0.00006   0.00000   0.02679   0.02816   3.97319
   Z40       -4.08109   0.00003   0.00000   0.01490   0.01678  -4.06431
   X41       -4.19468  -0.00003   0.00000  -0.02124  -0.02261  -4.21729
   Y41        5.04767   0.00003   0.00000   0.01964   0.02036   5.06803
   Z41       -4.04262   0.00003   0.00000   0.02325   0.02515  -4.01747
   X42       -5.15330  -0.00004   0.00000  -0.01823  -0.02016  -5.17346
   Y42        5.93875   0.00001   0.00000   0.01183   0.01154   5.95029
   Z42       -1.76032   0.00008   0.00000   0.02759   0.02965  -1.73067
   X43       -3.71836  -0.00003   0.00000  -0.01189  -0.01408  -3.73244
   Y43        5.72842   0.00003   0.00000   0.01202   0.01137   5.73979
   Z43        0.44142   0.00005   0.00000   0.02344   0.02563   0.46705
   X44        1.42810   0.00000   0.00000  -0.00922  -0.01030   1.41780
   Y44        2.75537   0.00002   0.00000   0.03120   0.03268   2.78805
   Z44       -1.88638  -0.00000   0.00000   0.00423   0.00618  -1.88020
   X45       -1.01945  -0.00003   0.00000  -0.02044  -0.02108  -1.04053
   Y45        3.25859   0.00006   0.00000   0.03298   0.03515   3.29373
   Z45       -5.85520   0.00001   0.00000   0.01144   0.01321  -5.84199
   X46       -5.29180  -0.00005   0.00000  -0.02608  -0.02724  -5.31904
   Y46        5.22292   0.00005   0.00000   0.02018   0.02119   5.24411
   Z46       -5.76931   0.00005   0.00000   0.02638   0.02818  -5.74113
   X47       -7.01264  -0.00004   0.00000  -0.02075  -0.02291  -7.03555
   Y47        6.80719   0.00001   0.00000   0.00591   0.00511   6.81230
   Z47       -1.69004   0.00007   0.00000   0.03415   0.03622  -1.65382
   X48       -4.48315  -0.00003   0.00000  -0.00969  -0.01232  -4.49547
   Y48        6.44907  -0.00000   0.00000   0.00604   0.00460   6.45366
   Z48        2.20932   0.00005   0.00000   0.02681   0.02913   2.23845
   X49        1.06123  -0.00013   0.00000  -0.00565  -0.00747   1.05376
   Y49        2.37830   0.00005   0.00000   0.01994   0.01937   2.39767
   Z49        3.94614   0.00017   0.00000   0.01386   0.01563   3.96177
   X50       -0.84941  -0.00001   0.00000   0.00996   0.00929  -0.84013
   Y50       -0.54725  -0.00008   0.00000  -0.01099  -0.01119  -0.55843
   Z50        1.36140  -0.00004   0.00000  -0.00582  -0.00531   1.35608
   X51        3.27267   0.00007   0.00000  -0.01870  -0.02000   3.25267
   Y51        1.04351   0.00000   0.00000   0.00603   0.00643   1.04994
   Z51        2.77680  -0.00001   0.00000   0.00433   0.00596   2.78276
   X52        2.59272  -0.00015   0.00000  -0.03834  -0.03904   2.55368
   Y52       -0.04554  -0.00007   0.00000   0.00046   0.00138  -0.04416
   Z52        0.64974  -0.00008   0.00000   0.01320   0.01436   0.66411
   X53        3.92970  -0.00002   0.00000  -0.01331  -0.01444   3.91526
   Y53       -0.67747  -0.00000   0.00000   0.01075   0.01068  -0.66679
   Z53        4.71755   0.00003   0.00000   0.00672   0.00788   4.72543
   X54        2.61942   0.00002   0.00000  -0.01942  -0.02021   2.59922
   Y54       -1.97010   0.00007   0.00000   0.01662   0.01621  -1.95388
   Z54        4.67101   0.00004   0.00000   0.02096   0.02150   4.69250
   X55        5.52870  -0.00002   0.00000  -0.00892  -0.01068   5.51801
   Y55        2.91005  -0.00000   0.00000  -0.00644  -0.00541   2.90464
   Z55        2.69180  -0.00006   0.00000  -0.01775  -0.01517   2.67663
   X56        5.36238   0.00002   0.00000   0.01274   0.01040   5.37278
   Y56        4.21288   0.00004   0.00000  -0.00082  -0.00036   4.21252
   Z56        4.29739   0.00000   0.00000  -0.01986  -0.01686   4.28053
   X57        7.22507  -0.00001   0.00000  -0.01359  -0.01512   7.20995
   Y57        1.78008  -0.00003   0.00000  -0.01686  -0.01552   1.76457
   Z57        3.07154  -0.00001   0.00000  -0.02762  -0.02517   3.04637
   X58        0.20050  -0.00001   0.00000  -0.00179  -0.00406   0.19644
   Y58        4.65234   0.00002   0.00000   0.02004   0.01960   4.67194
   Z58        2.90211  -0.00002   0.00000   0.01098   0.01339   2.91550
   X59       -1.03995  -0.00001   0.00000   0.00486   0.00217  -1.03778
   Y59        5.48049   0.00003   0.00000   0.02667   0.02542   5.50591
   Z59        4.34474   0.00004   0.00000   0.01294   0.01545   4.36019
   X60        1.77602   0.00001   0.00000   0.00153  -0.00104   1.77498
   Y60        5.99002   0.00002   0.00000   0.01482   0.01487   6.00489
   Z60        2.67315  -0.00000   0.00000   0.00323   0.00631   2.67946
   X61       -3.09373  -0.00006   0.00000  -0.00496  -0.00647  -3.10020
   Y61       -0.43537  -0.00002   0.00000  -0.01386  -0.01653  -0.45191
   Z61        6.99896   0.00001   0.00000  -0.00930  -0.00908   6.98988
   X62       -1.42659   0.00002   0.00000  -0.00729  -0.00910  -1.43569
   Y62        0.77723   0.00006   0.00000  -0.00975  -0.01193   0.76529
   Z62        6.85400  -0.00002   0.00000  -0.00479  -0.00393   6.85007
   X63       -4.83547  -0.00004   0.00000  -0.00673  -0.00848  -4.84395
   Y63        0.63342  -0.00005   0.00000  -0.01773  -0.02076   0.61265
   Z63        6.71998  -0.00003   0.00000  -0.01348  -0.01316   6.70682
   X64       -3.14432  -0.00005   0.00000  -0.00766  -0.00915  -3.15347
   Y64       -1.47788  -0.00003   0.00000  -0.01463  -0.01791  -1.49579
   Z64        8.77749  -0.00002   0.00000  -0.00982  -0.00996   8.76753
   X65        5.92739  -0.00048   0.00000  -0.01667  -0.01846   5.90893
   Y65        4.38360  -0.00004   0.00000  -0.01658  -0.01462   4.36898
   Z65        0.24485  -0.00057   0.00000  -0.02515  -0.02203   0.22283
   X66        6.20596  -0.00016   0.00000  -0.06241  -0.06363   6.14232
   Y66        3.05238   0.00045   0.00000  -0.02261  -0.02007   3.03231
   Z66       -1.32050   0.00045   0.00000  -0.02546  -0.02274  -1.34325
   X67        4.24406   0.00048   0.00000  -0.00176  -0.00378   4.24028
   Y67        5.48021  -0.00032   0.00000   0.01257   0.01425   5.49446
   Z67       -0.25834   0.00009   0.00000  -0.00429  -0.00103  -0.25937
   X68        8.18922  -0.00038   0.00000   0.02195   0.01967   8.20890
   Y68        6.16733  -0.00023   0.00000  -0.06184  -0.05934   6.10799
   Z68        0.44437  -0.00050   0.00000  -0.06107  -0.05703   0.38734
   X69        8.51690   0.00007   0.00000   0.01604   0.01375   8.53065
   Y69        7.19842  -0.00015   0.00000  -0.07011  -0.06694   7.13148
   Z69       -1.31807  -0.00012   0.00000  -0.06700  -0.06257  -1.38064
   X70        7.88569   0.00016   0.00000   0.07609   0.07324   7.95893
   Y70        7.55930   0.00025   0.00000  -0.05375  -0.05182   7.50748
   Z70        1.94498   0.00024   0.00000  -0.05575  -0.05127   1.89371
   X71        9.91666   0.00037   0.00000   0.00857   0.00652   9.92318
   Y71        5.12666  -0.00046   0.00000  -0.09913  -0.09633   5.03033
   Z71        0.91058  -0.00012   0.00000  -0.08895  -0.08502   0.82556
   X72        9.12959   0.00001   0.00000   0.00133   0.00188   9.13147
   Y72       -4.30580   0.00004   0.00000   0.01550   0.01849  -4.28731
   Z72       -0.39527   0.00004   0.00000   0.02625   0.02695  -0.36833
   X73       10.25142  -0.00001   0.00000  -0.00376  -0.00348  10.24794
   Y73       -4.21970   0.00005   0.00000   0.02422   0.02693  -4.19278
   Z73        1.33328   0.00005   0.00000   0.02912   0.03001   1.36329
   X74       10.01980   0.00001   0.00000   0.00630   0.00739  10.02719
   Y74       -5.64866   0.00003   0.00000   0.01049   0.01415  -5.63450
   Z74       -1.69582   0.00007   0.00000   0.03489   0.03526  -1.66056
   X75        8.79042  -0.00003   0.00000   0.00312   0.00318   8.79361
   Y75       -1.72477  -0.00003   0.00000   0.00966   0.01299  -1.71178
   Z75       -1.65389   0.00004   0.00000   0.01383   0.01534  -1.63855
   X76        8.35208   0.00004   0.00000   0.00134   0.00083   8.35291
   Y76       -0.31987   0.00006   0.00000   0.01661   0.01934  -0.30053
   Z76       -0.20424  -0.00000   0.00000   0.00655   0.00846  -0.19578
   X77       10.44040   0.00001   0.00000   0.00494   0.00500  10.44539
   Y77       -1.09540   0.00001   0.00000   0.00462   0.00874  -1.08666
   Z77       -2.72145   0.00001   0.00000   0.01362   0.01558  -2.70587
         Item               Value     Threshold  Converged?
 Maximum Force            0.000573     0.000450     NO 
 RMS     Force            0.000106     0.000300     YES
 Maximum Displacement     0.096326     0.001800     NO 
 RMS     Displacement     0.019696     0.001200     NO 
 Predicted change in Energy=-1.667268D-04
 GradGradGradGradGradGradGradGradGradGradGradGradGradGradGradGradGradGrad

 Leave Link  103 at Thu Feb  7 13:48:50 2019, MaxMem=   104857600 cpu:              31.5 elap:               1.4
 (Enter /home/xinyan/g16/l9999.exe)
 1\1\GINC-TSE4\Force\RM062X\6-31G(d)\C27H41N3O5S1\STEVETSE\07-Feb-2019\
 0\\#p M062X/6-31G* em=gd3 force int=ultrafine\\Title\\0,1\C,-4.9085,0.
 24878,-0.42822\C,-5.09804,-1.02811,-1.25263\C,-3.76805,-1.48598,-1.863
 81\C,-2.76711,-1.71826,-0.73791\C,-2.53495,-0.41878,0.0748\C,-3.86093,
 0.06206,0.67415\H,-3.89299,-2.40028,-2.45368\H,-5.49394,-1.8263,-0.611
 04\H,-5.83129,-0.86455,-2.04857\H,-4.58635,1.06008,-1.09425\H,-5.86212
 ,0.55501,0.01395\H,-3.15521,-2.48666,-0.06226\H,-2.20199,0.34709,-0.63
 735\H,-4.21797,-0.66553,1.41055\H,-3.6769,1.00992,1.19124\H,-3.40841,-
 0.69699,-2.53806\N,-1.44225,-2.20018,-1.18146\C,-0.74167,-1.49717,-2.1
 1141\C,-0.76008,-3.018,-0.33604\C,0.61499,-1.5528,-2.19376\H,-1.32404,
 -0.85665,-2.76223\C,0.59684,-3.11397,-0.34636\H,-1.36107,-3.53711,0.40
 278\C,1.3538,-2.28106,-1.21345\H,1.11774,-0.96442,-2.94942\H,1.07038,-
 3.72764,0.40669\N,2.6748,-2.18765,-1.11597\C,3.38964,-2.68944,0.06736\
 H,3.26492,-3.77145,0.16405\H,2.98696,-2.17467,0.95208\C,3.41665,-1.095
 1,-1.76223\H,3.67753,-1.37565,-2.79012\H,2.79092,-0.19852,-1.76081\N,-
 1.42953,-0.5379,1.01326\S,-1.49839,-1.41642,2.38709\O,-2.71424,-2.2344
 5,2.34438\O,-0.21886,-2.10599,2.56886\C,-0.69736,2.44722,0.23078\C,-0.
 19952,1.97176,-0.99272\C,-0.95283,2.08762,-2.15962\C,-2.21973,2.67111,
 -2.13926\C,-2.72701,3.14265,-0.93152\C,-1.96767,3.03135,0.23359\H,0.75
 572,1.45808,-0.99823\H,-0.53947,1.72437,-3.09844\H,-2.8003,2.76385,-3.
 05299\H,-3.71093,3.60221,-0.89433\H,-2.37238,3.4127,1.16912\O,0.56158,
 1.25854,2.08821\H,-0.44949,-0.28959,0.72042\C,1.73182,0.5522,1.46942\O
 ,1.37201,-0.0241,0.34383\O,2.07951,-0.3585,2.49642\H,1.38614,-1.04253,
 2.47179\C,2.92566,1.53993,1.42444\H,2.83765,2.22936,2.27408\H,3.82334,
 0.94198,1.62539\C,0.1061,2.46191,1.53573\H,-0.55032,2.90015,2.29914\H,
 0.93983,3.16978,1.41457\C,-1.63713,-0.23039,3.70369\H,-0.75492,0.41129
 ,3.62698\H,-2.55882,0.33519,3.55606\H,-1.6639,-0.78206,4.64485\C,3.136
 64,2.3197,0.12957\H,3.28405,1.61525,-0.69878\H,2.24586,2.9,-0.13671\C,
 4.33355,3.26361,0.23515\H,4.50695,3.80924,-0.69749\H,4.17293,4.00021,1
 .02924\H,5.24767,2.71291,0.48186\C,4.83117,-2.27853,-0.20917\H,5.42482
 ,-2.23297,0.70554\H,5.30225,-2.98914,-0.89739\C,4.65169,-0.91271,-0.87
 52\H,4.41973,-0.16927,-0.10808\H,5.52482,-0.57966,-1.44013\\Version=ES
 64L-G16RevA.03\State=1-A\HF=-1991.3580501\RMSD=9.199e-09\RMSF=1.063e-0
 4\Dipole=-1.0181375,-0.7161654,-2.5170935\Quadrupole=7.6463104,-5.0451
 379,-2.6011725,-9.3629371,-3.871847,7.269968\PG=C01 [X(C27H41N3O5S1)]\
 \@


 I DON'T PRETEND TO UNDERSTAND THE UNIVERSE --
 IT'S A GREAT DEAL BIGGER THAN I AM.
       -- ATTR. TO WILLIAM ALLINGHAM (1828-89)
 Job cpu time:       0 days  1 hours 18 minutes 18.0 seconds.
 Elapsed time:       0 days  0 hours  3 minutes 17.8 seconds.
 File lengths (MBytes):  RWF=    216 Int=      0 D2E=      0 Chk=     25 Scr=      1
 Normal termination of Gaussian 16 at Thu Feb  7 13:48:50 2019.
