 Entering Gaussian System, Link 0=g16
 Input=C27N3H41SO5-34.gjf
 Output=C27N3H41SO5-34.log
 Initial command:
 /home/xinyan/g16/l1.exe "/local/home/tmp/Gau-14891.inp" -scrdir="/local/home/tmp/"
 Entering Link 1 = /home/xinyan/g16/l1.exe PID=     14892.
  
 Copyright (c) 1988,1990,1992,1993,1995,1998,2003,2009,2016,
            Gaussian, Inc.  All Rights Reserved.
  
 This is part of the Gaussian(R) 16 program.  It is based on
 the Gaussian(R) 09 system (copyright 2009, Gaussian, Inc.),
 the Gaussian(R) 03 system (copyright 2003, Gaussian, Inc.),
 the Gaussian(R) 98 system (copyright 1998, Gaussian, Inc.),
 the Gaussian(R) 94 system (copyright 1995, Gaussian, Inc.),
 the Gaussian 92(TM) system (copyright 1992, Gaussian, Inc.),
 the Gaussian 90(TM) system (copyright 1990, Gaussian, Inc.),
 the Gaussian 88(TM) system (copyright 1988, Gaussian, Inc.),
 the Gaussian 86(TM) system (copyright 1986, Carnegie Mellon
 University), and the Gaussian 82(TM) system (copyright 1983,
 Carnegie Mellon University). Gaussian is a federally registered
 trademark of Gaussian, Inc.
  
 This software contains proprietary and confidential information,
 including trade secrets, belonging to Gaussian, Inc.
  
 This software is provided under written license and may be
 used, copied, transmitted, or stored only in accord with that
 written license.
  
 The following legend is applicable only to US Government
 contracts under FAR:
  
                    RESTRICTED RIGHTS LEGEND
  
 Use, reproduction and disclosure by the US Government is
 subject to restrictions as set forth in subparagraphs (a)
 and (c) of the Commercial Computer Software - Restricted
 Rights clause in FAR 52.227-19.
  
 Gaussian, Inc.
 340 Quinnipiac St., Bldg. 40, Wallingford CT 06492
  
  
 ---------------------------------------------------------------
 Warning -- This program may not be used in any manner that
 competes with the business of Gaussian, Inc. or will provide
 assistance to any competitor of Gaussian, Inc.  The licensee
 of this program is prohibited from giving any competitor of
 Gaussian, Inc. access to this program.  By using this program,
 the user acknowledges that Gaussian, Inc. is engaged in the
 business of creating and licensing software in the field of
 computational chemistry and represents and warrants to the
 licensee that it is not a competitor of Gaussian, Inc. and that
 it will not use this program in any manner prohibited above.
 ---------------------------------------------------------------
  

 Cite this work as:
 Gaussian 16, Revision A.03,
 M. J. Frisch, G. W. Trucks, H. B. Schlegel, G. E. Scuseria, 
 M. A. Robb, J. R. Cheeseman, G. Scalmani, V. Barone, 
 G. A. Petersson, H. Nakatsuji, X. Li, M. Caricato, A. V. Marenich, 
 J. Bloino, B. G. Janesko, R. Gomperts, B. Mennucci, H. P. Hratchian, 
 J. V. Ortiz, A. F. Izmaylov, J. L. Sonnenberg, D. Williams-Young, 
 F. Ding, F. Lipparini, F. Egidi, J. Goings, B. Peng, A. Petrone, 
 T. Henderson, D. Ranasinghe, V. G. Zakrzewski, J. Gao, N. Rega, 
 G. Zheng, W. Liang, M. Hada, M. Ehara, K. Toyota, R. Fukuda, 
 J. Hasegawa, M. Ishida, T. Nakajima, Y. Honda, O. Kitao, H. Nakai, 
 T. Vreven, K. Throssell, J. A. Montgomery, Jr., J. E. Peralta, 
 F. Ogliaro, M. J. Bearpark, J. J. Heyd, E. N. Brothers, K. N. Kudin, 
 V. N. Staroverov, T. A. Keith, R. Kobayashi, J. Normand, 
 K. Raghavachari, A. P. Rendell, J. C. Burant, S. S. Iyengar, 
 J. Tomasi, M. Cossi, J. M. Millam, M. Klene, C. Adamo, R. Cammi, 
 J. W. Ochterski, R. L. Martin, K. Morokuma, O. Farkas, 
 J. B. Foresman, and D. J. Fox, Gaussian, Inc., Wallingford CT, 2016.
 
 ******************************************
 Gaussian 16:  ES64L-G16RevA.03 25-Dec-2016
                 7-Feb-2019 
 ******************************************
 %nproc=24
 Will use up to   24 processors via shared memory.
 ------------------------------------------
 #p M062X/6-31G* em=gd3 force int=ultrafine
 ------------------------------------------
 1/10=7,30=1,38=1/1,3;
 2/12=2,17=6,18=5,40=1/2;
 3/5=1,6=6,7=1,11=2,25=1,30=1,71=1,74=-55,75=-5,124=31/1,2,3;
 4//1;
 5/5=2,38=5/2;
 6/7=2,8=2,9=2,10=2,28=1/1;
 7/29=1/1,2,3,16;
 1/10=7,30=1/3;
 99//99;
 Leave Link    1 at Thu Feb  7 10:22:21 2019, MaxMem=           0 cpu:               2.5 elap:               0.1
 (Enter /home/xinyan/g16/l101.exe)
 -----
 Title
 -----
 Symbolic Z-matrix:
 Charge =  0 Multiplicity = 1
 C                    -4.98576   0.23503  -0.42071 
 C                    -5.13295  -1.04301  -1.2515 
 C                    -3.7806   -1.47619  -1.83015 
 C                    -2.79699  -1.69995  -0.68586 
 C                    -2.62053  -0.40565   0.14464 
 C                    -3.96802   0.05479   0.70884 
 H                    -3.87538  -2.38772  -2.42974 
 H                    -5.53228  -1.84827  -0.62102 
 H                    -5.84769  -0.89037  -2.06615 
 H                    -4.65178   1.05223  -1.07461 
 H                    -5.9554    0.52962  -0.00674 
 H                    -3.18076  -2.48641  -0.02781 
 H                    -2.27171   0.37037  -0.54894 
 H                    -4.33182  -0.68029   1.43479 
 H                    -3.80682   1.00209   1.23574 
 H                    -3.41889  -0.67581  -2.48956 
 N                    -1.45672  -2.15109  -1.11594 
 C                    -0.77037  -1.46856  -2.07126 
 C                    -0.7613   -2.96251  -0.2759 
 C                     0.58253  -1.54702  -2.19272 
 H                    -1.35999  -0.83061  -2.71708 
 C                     0.59313  -3.08     -0.32473 
 H                    -1.34858  -3.47223   0.47999 
 C                     1.34213  -2.28434  -1.23514 
 H                     1.07095  -0.97627  -2.97124 
 H                     1.07698  -3.69715   0.41896 
 N                     2.66872  -2.2417   -1.19577 
 C                     3.40042  -2.76026  -0.02877 
 H                     3.26961  -3.84252   0.06001 
 H                     3.01584  -2.24949   0.8654 
 C                     3.43371  -1.18018  -1.87261 
 H                     3.70702  -1.50503  -2.88433 
 H                     2.82947  -0.27112  -1.90697 
 N                    -1.54421  -0.52112   1.1125 
 S                    -1.55991  -1.41903   2.47422 
 O                    -2.78377  -2.22265   2.44504 
 O                    -0.27943  -2.11434   2.60612 
 C                    -0.68273   2.43755   0.1449 
 C                    -0.17915   1.86799  -1.03278 
 C                    -0.90275   1.96177  -2.22132 
 C                    -2.14219   2.60072  -2.25616 
 C                    -2.65519   3.15618  -1.08551 
 C                    -1.92579   3.0753    0.10034 
 H                     0.75606   1.31111  -0.97515 
 H                    -0.48999   1.53488  -3.13337 
 H                    -2.70013   2.67149  -3.18576 
 H                    -3.62048   3.65479  -1.09563 
 H                    -2.33179   3.5138    1.00983 
 O                     0.53848   1.12375   1.86343 
 H                    -0.65453  -0.01073   0.98757 
 C                     1.90164   0.51726   1.36974 
 O                     1.75143  -0.02231   0.2083 
 O                     2.13802  -0.38832   2.42864 
 H                     1.44624  -1.06908   2.34089 
 C                     2.97926   1.61191   1.50847 
 H                     2.74497   2.26666   2.35736 
 H                     3.90586   1.08972   1.78016 
 C                     0.09208   2.38698   1.45846 
 H                    -0.57945   2.75789   2.24781 
 H                     0.9241    3.10423   1.4105 
 C                    -1.62154  -0.23484   3.79954 
 H                    -0.74069   0.40127   3.66751 
 H                    -2.54883   0.33339   3.71268 
 H                    -1.58187  -0.7829    4.74223 
 C                     3.22629   2.42287   0.23855 
 H                     3.52627   1.73811  -0.56286 
 H                     2.30027   2.89097  -0.11596 
 C                     4.29198   3.49665   0.44524 
 H                     4.48937   4.05645  -0.47426 
 H                     3.98009   4.2134    1.21323 
 H                     5.23594   3.05126   0.77883 
 C                     4.84087  -2.35152  -0.31284 
 H                     5.43772  -2.3099    0.60015 
 H                     5.30972  -3.05962  -1.00542 
 C                     4.65448  -0.98418  -0.97148 
 H                     4.38665  -0.25245  -0.20409 
 H                     5.53046  -0.63569  -1.52279 
 
 ITRead=  0  0  0  0  0  0  0  0  0  0  0  0  0  0  0  0  0  0  0  0
 ITRead=  0  0  0  0  0  0  0  0  0  0  0  0  0  0  0  0  0  0  0  0
 ITRead=  0  0  0  0  0  0  0  0  0  0  0  0  0  0  0  0  0  0  0  0
 ITRead=  0  0  0  0  0  0  0  0  0  0  0  0  0  0  0  0  0
 MicOpt= -1 -1 -1 -1 -1 -1 -1 -1 -1 -1 -1 -1 -1 -1 -1 -1 -1 -1 -1 -1
 MicOpt= -1 -1 -1 -1 -1 -1 -1 -1 -1 -1 -1 -1 -1 -1 -1 -1 -1 -1 -1 -1
 MicOpt= -1 -1 -1 -1 -1 -1 -1 -1 -1 -1 -1 -1 -1 -1 -1 -1 -1 -1 -1 -1
 MicOpt= -1 -1 -1 -1 -1 -1 -1 -1 -1 -1 -1 -1 -1 -1 -1 -1 -1
 NAtoms=     77 NQM=       77 NQMF=       0 NMMI=      0 NMMIF=      0
                NMic=       0 NMicF=      0.
                    Isotopes and Nuclear Properties:
 (Nuclear quadrupole moments (NQMom) in fm**2, nuclear magnetic moments (NMagM)
  in nuclear magnetons)

  Atom         1           2           3           4           5           6           7           8           9          10
 IAtWgt=          12          12          12          12          12          12           1           1           1           1
 AtmWgt=  12.0000000  12.0000000  12.0000000  12.0000000  12.0000000  12.0000000   1.0078250   1.0078250   1.0078250   1.0078250
 NucSpn=           0           0           0           0           0           0           1           1           1           1
 AtZEff=  -0.0000000  -0.0000000  -0.0000000  -0.0000000  -0.0000000  -0.0000000  -0.0000000  -0.0000000  -0.0000000  -0.0000000
 NQMom=    0.0000000   0.0000000   0.0000000   0.0000000   0.0000000   0.0000000   0.0000000   0.0000000   0.0000000   0.0000000
 NMagM=    0.0000000   0.0000000   0.0000000   0.0000000   0.0000000   0.0000000   2.7928460   2.7928460   2.7928460   2.7928460
 AtZNuc=   6.0000000   6.0000000   6.0000000   6.0000000   6.0000000   6.0000000   1.0000000   1.0000000   1.0000000   1.0000000

  Atom        11          12          13          14          15          16          17          18          19          20
 IAtWgt=           1           1           1           1           1           1          14          12          12          12
 AtmWgt=   1.0078250   1.0078250   1.0078250   1.0078250   1.0078250   1.0078250  14.0030740  12.0000000  12.0000000  12.0000000
 NucSpn=           1           1           1           1           1           1           2           0           0           0
 AtZEff=  -0.0000000  -0.0000000  -0.0000000  -0.0000000  -0.0000000  -0.0000000  -0.0000000  -0.0000000  -0.0000000  -0.0000000
 NQMom=    0.0000000   0.0000000   0.0000000   0.0000000   0.0000000   0.0000000   2.0440000   0.0000000   0.0000000   0.0000000
 NMagM=    2.7928460   2.7928460   2.7928460   2.7928460   2.7928460   2.7928460   0.4037610   0.0000000   0.0000000   0.0000000
 AtZNuc=   1.0000000   1.0000000   1.0000000   1.0000000   1.0000000   1.0000000   7.0000000   6.0000000   6.0000000   6.0000000

  Atom        21          22          23          24          25          26          27          28          29          30
 IAtWgt=           1          12           1          12           1           1          14          12           1           1
 AtmWgt=   1.0078250  12.0000000   1.0078250  12.0000000   1.0078250   1.0078250  14.0030740  12.0000000   1.0078250   1.0078250
 NucSpn=           1           0           1           0           1           1           2           0           1           1
 AtZEff=  -0.0000000  -0.0000000  -0.0000000  -0.0000000  -0.0000000  -0.0000000  -0.0000000  -0.0000000  -0.0000000  -0.0000000
 NQMom=    0.0000000   0.0000000   0.0000000   0.0000000   0.0000000   0.0000000   2.0440000   0.0000000   0.0000000   0.0000000
 NMagM=    2.7928460   0.0000000   2.7928460   0.0000000   2.7928460   2.7928460   0.4037610   0.0000000   2.7928460   2.7928460
 AtZNuc=   1.0000000   6.0000000   1.0000000   6.0000000   1.0000000   1.0000000   7.0000000   6.0000000   1.0000000   1.0000000

  Atom        31          32          33          34          35          36          37          38          39          40
 IAtWgt=          12           1           1          14          32          16          16          12          12          12
 AtmWgt=  12.0000000   1.0078250   1.0078250  14.0030740  31.9720718  15.9949146  15.9949146  12.0000000  12.0000000  12.0000000
 NucSpn=           0           1           1           2           0           0           0           0           0           0
 AtZEff=  -0.0000000  -0.0000000  -0.0000000  -0.0000000  -0.0000000  -0.0000000  -0.0000000  -0.0000000  -0.0000000  -0.0000000
 NQMom=    0.0000000   0.0000000   0.0000000   2.0440000   0.0000000   0.0000000   0.0000000   0.0000000   0.0000000   0.0000000
 NMagM=    0.0000000   2.7928460   2.7928460   0.4037610   0.0000000   0.0000000   0.0000000   0.0000000   0.0000000   0.0000000
 AtZNuc=   6.0000000   1.0000000   1.0000000   7.0000000  16.0000000   8.0000000   8.0000000   6.0000000   6.0000000   6.0000000

  Atom        41          42          43          44          45          46          47          48          49          50
 IAtWgt=          12          12          12           1           1           1           1           1          16           1
 AtmWgt=  12.0000000  12.0000000  12.0000000   1.0078250   1.0078250   1.0078250   1.0078250   1.0078250  15.9949146   1.0078250
 NucSpn=           0           0           0           1           1           1           1           1           0           1
 AtZEff=  -0.0000000  -0.0000000  -0.0000000  -0.0000000  -0.0000000  -0.0000000  -0.0000000  -0.0000000  -0.0000000  -0.0000000
 NQMom=    0.0000000   0.0000000   0.0000000   0.0000000   0.0000000   0.0000000   0.0000000   0.0000000   0.0000000   0.0000000
 NMagM=    0.0000000   0.0000000   0.0000000   2.7928460   2.7928460   2.7928460   2.7928460   2.7928460   0.0000000   2.7928460
 AtZNuc=   6.0000000   6.0000000   6.0000000   1.0000000   1.0000000   1.0000000   1.0000000   1.0000000   8.0000000   1.0000000

  Atom        51          52          53          54          55          56          57          58          59          60
 IAtWgt=          12          16          16           1          12           1           1          12           1           1
 AtmWgt=  12.0000000  15.9949146  15.9949146   1.0078250  12.0000000   1.0078250   1.0078250  12.0000000   1.0078250   1.0078250
 NucSpn=           0           0           0           1           0           1           1           0           1           1
 AtZEff=  -0.0000000  -0.0000000  -0.0000000  -0.0000000  -0.0000000  -0.0000000  -0.0000000  -0.0000000  -0.0000000  -0.0000000
 NQMom=    0.0000000   0.0000000   0.0000000   0.0000000   0.0000000   0.0000000   0.0000000   0.0000000   0.0000000   0.0000000
 NMagM=    0.0000000   0.0000000   0.0000000   2.7928460   0.0000000   2.7928460   2.7928460   0.0000000   2.7928460   2.7928460
 AtZNuc=   6.0000000   8.0000000   8.0000000   1.0000000   6.0000000   1.0000000   1.0000000   6.0000000   1.0000000   1.0000000

  Atom        61          62          63          64          65          66          67          68          69          70
 IAtWgt=          12           1           1           1          12           1           1          12           1           1
 AtmWgt=  12.0000000   1.0078250   1.0078250   1.0078250  12.0000000   1.0078250   1.0078250  12.0000000   1.0078250   1.0078250
 NucSpn=           0           1           1           1           0           1           1           0           1           1
 AtZEff=  -0.0000000  -0.0000000  -0.0000000  -0.0000000  -0.0000000  -0.0000000  -0.0000000  -0.0000000  -0.0000000  -0.0000000
 NQMom=    0.0000000   0.0000000   0.0000000   0.0000000   0.0000000   0.0000000   0.0000000   0.0000000   0.0000000   0.0000000
 NMagM=    0.0000000   2.7928460   2.7928460   2.7928460   0.0000000   2.7928460   2.7928460   0.0000000   2.7928460   2.7928460
 AtZNuc=   6.0000000   1.0000000   1.0000000   1.0000000   6.0000000   1.0000000   1.0000000   6.0000000   1.0000000   1.0000000

  Atom        71          72          73          74          75          76          77
 IAtWgt=           1          12           1           1          12           1           1
 AtmWgt=   1.0078250  12.0000000   1.0078250   1.0078250  12.0000000   1.0078250   1.0078250
 NucSpn=           1           0           1           1           0           1           1
 AtZEff=  -0.0000000  -0.0000000  -0.0000000  -0.0000000  -0.0000000  -0.0000000  -0.0000000
 NQMom=    0.0000000   0.0000000   0.0000000   0.0000000   0.0000000   0.0000000   0.0000000
 NMagM=    2.7928460   0.0000000   2.7928460   2.7928460   0.0000000   2.7928460   2.7928460
 AtZNuc=   1.0000000   6.0000000   1.0000000   1.0000000   6.0000000   1.0000000   1.0000000
 Leave Link  101 at Thu Feb  7 10:22:21 2019, MaxMem=   104857600 cpu:               5.7 elap:               0.3
 (Enter /home/xinyan/g16/l103.exe)

 GradGradGradGradGradGradGradGradGradGradGradGradGradGradGradGradGradGrad
 Berny optimization.
 Initialization pass.
 Trust Radius=3.00D-01 FncErr=1.00D-07 GrdErr=1.00D-07 EigMax=2.50D+02 EigMin=1.00D-04
 Number of steps in this run=      2 maximum allowed number of steps=      2.
 GradGradGradGradGradGradGradGradGradGradGradGradGradGradGradGradGradGrad

 Leave Link  103 at Thu Feb  7 10:22:21 2019, MaxMem=   104857600 cpu:               1.6 elap:               0.1
 (Enter /home/xinyan/g16/l202.exe)
 Stoichiometry    C27H41N3O5S
 Framework group  C1[X(C27H41N3O5S)]
 Deg. of freedom   225
 Full point group                 C1      NOp   1
 Largest Abelian subgroup         C1      NOp   1
 Largest concise Abelian subgroup C1      NOp   1
                         Standard orientation:                         
 ---------------------------------------------------------------------
 Center     Atomic      Atomic             Coordinates (Angstroms)
 Number     Number       Type             X           Y           Z
 ---------------------------------------------------------------------
      1          6           0       -4.863980    0.513120   -0.553639
      2          6           0       -5.033927   -0.779729   -1.356709
      3          6           0       -3.692017   -1.241352   -1.937669
      4          6           0       -2.701347   -1.453808   -0.797322
      5          6           0       -2.501937   -0.145071    0.004879
      6          6           0       -3.838779    0.343448    0.570790
      7          1           0       -3.803091   -2.163715   -2.517572
      8          1           0       -5.437579   -1.566922   -0.706473
      9          1           0       -5.753774   -0.634956   -2.168293
     10          1           0       -4.525728    1.312578   -1.226986
     11          1           0       -5.826337    0.828089   -0.137684
     12          1           0       -3.088972   -2.221834   -0.120040
     13          1           0       -2.149692    0.612224   -0.707416
     14          1           0       -4.205223   -0.372071    1.314731
     15          1           0       -3.661486    1.299262    1.076728
     16          1           0       -3.326291   -0.459165   -2.616411
     17          7           0       -1.370449   -1.930197   -1.229277
     18          6           0       -0.684117   -1.275895   -2.204160
     19          6           0       -0.677735   -2.732803   -0.378601
     20          6           0        0.666624   -1.373553   -2.335340
     21          1           0       -1.271478   -0.644045   -2.857985
     22          6           0        0.674688   -2.868013   -0.436380
     23          1           0       -1.264627   -3.219649    0.392515
     24          6           0        1.425432   -2.100470   -1.369216
     25          1           0        1.155215   -0.824934   -3.129506
     26          1           0        1.157391   -3.475759    0.315752
     27          7           0        2.752734   -2.073448   -1.341875
     28          6           0        3.488124   -2.577038   -0.170647
     29          1           0        3.344898   -3.655554   -0.058537
     30          1           0        3.117552   -2.043365    0.716031
     31          6           0        3.524729   -1.035540   -2.046800
     32          1           0        3.785294   -1.384375   -3.053887
     33          1           0        2.931346   -0.119968   -2.094768
     34          7           0       -1.418772   -0.254024    0.965834
     35         16           0       -1.433640   -1.123627    2.345812
     36          8           0       -2.667416   -1.912474    2.343442
     37          8           0       -0.160642   -1.831880    2.481221
     38          6           0       -0.529676    2.673350   -0.069598
     39          6           0       -0.043287    2.073632   -1.239506
     40          6           0       -0.775945    2.152023   -2.423604
     41          6           0       -2.007755    2.805410   -2.461162
     42          6           0       -2.503796    3.391005   -1.297913
     43          6           0       -1.765205    3.325383   -0.116819
     44          1           0        0.885525    1.506521   -1.178296
     45          1           0       -0.376328    1.701491   -3.330118
     46          1           0       -2.572812    2.864045   -3.387302
     47          1           0       -3.462985    3.901206   -1.310175
     48          1           0       -2.157943    3.787386    0.786840
     49          8           0        0.690242    1.379974    1.665264
     50          1           0       -0.524048    0.242659    0.822967
     51          6           0        2.041582    0.746695    1.172717
     52          8           0        1.874761    0.185378    0.023919
     53          8           0        2.276052   -0.139889    2.247990
     54          1           0        1.575288   -0.813692    2.180069
     55          6           0        3.133632    1.830539    1.279853
     56          1           0        2.914697    2.505366    2.117039
     57          1           0        4.056110    1.302594    1.554430
     58          6           0        0.255794    2.640081    1.238170
     59          1           0       -0.404308    3.035339    2.025339
     60          1           0        1.096054    3.345852    1.168485
     61          6           0       -1.469355    0.088099    3.646974
     62          1           0       -0.581988    0.710430    3.494499
     63          1           0       -2.390363    0.665861    3.556240
     64          1           0       -1.428218   -0.441011    4.600367
     65          6           0        3.379538    2.612233   -0.008503
     66          1           0        3.664200    1.907564   -0.798155
     67          1           0        2.456263    3.084403   -0.364772
     68          6           0        4.459992    3.676751    0.167107
     69          1           0        4.656233    4.215140   -0.765335
     70          1           0        4.163523    4.412865    0.922790
     71          1           0        5.401301    3.226635    0.501844
     72          6           0        4.930940   -2.192045   -0.475150
     73          1           0        5.536130   -2.139144    0.431746
     74          1           0        5.385110   -2.919911   -1.156938
     75          6           0        4.755549   -0.836264   -1.160176
     76          1           0        4.503311   -0.085732   -0.405771
     77          1           0        5.630911   -0.509988   -1.725873
 ---------------------------------------------------------------------
 Rotational constants (GHZ):           0.1514844           0.0985921           0.0892269
 Leave Link  202 at Thu Feb  7 10:22:21 2019, MaxMem=   104857600 cpu:               2.5 elap:               0.1
 (Enter /home/xinyan/g16/l301.exe)
 Standard basis: 6-31G(d) (6D, 7F)
 Ernie: Thresh=  0.10000D-02 Tol=  0.10000D-05 Strict=F.
 There are   626 symmetry adapted cartesian basis functions of A   symmetry.
 There are   626 symmetry adapted basis functions of A   symmetry.
   626 basis functions,  1196 primitive gaussians,   626 cartesian basis functions
   140 alpha electrons      140 beta electrons
       nuclear repulsion energy      4957.3023361938 Hartrees.
 IExCor= 4336 DFT=T Ex+Corr=M062X ExCW=0 ScaHFX=  0.540000
 ScaDFX=  1.000000  1.000000  1.000000  1.000000 ScalE2=  1.000000  1.000000
 IRadAn=      5 IRanWt=     -1 IRanGd=            0 ICorTp=0 IEmpDi=131
 NAtoms=   77 NActive=   77 NUniq=   77 SFac= 1.00D+00 NAtFMM=   60 NAOKFM=T Big=T
 Integral buffers will be    131072 words long.
 Raffenetti 2 integral format.
 Two-electron integral symmetry is turned on.
 R6Disp:  Grimme-D3 Dispersion energy=       -0.0107070047 Hartrees.
 Nuclear repulsion after empirical dispersion term =     4957.2916291891 Hartrees.
 Leave Link  301 at Thu Feb  7 10:22:22 2019, MaxMem=   104857600 cpu:               3.0 elap:               0.2
 (Enter /home/xinyan/g16/l302.exe)
 NPDir=0 NMtPBC=     1 NCelOv=     1 NCel=       1 NClECP=     1 NCelD=      1
         NCelK=      1 NCelE2=     1 NClLst=     1 CellRange=     0.0.
 One-electron integrals computed using PRISM.
 One-electron integral symmetry used in STVInt
 PrsmSu:  requested number of processors reduced to:  23 ShMem   1 Linda.
 NBasis=   626 RedAO= T EigKep=  4.37D-04  NBF=   626
 NBsUse=   626 1.00D-06 EigRej= -1.00D+00 NBFU=   626
 Precomputing XC quadrature grid using
 IXCGrd= 4 IRadAn=           5 IRanWt=          -1 IRanGd=           0 AccXCQ= 0.00D+00.
 Generated NRdTot=       0 NPtTot=           0 NUsed=           0 NTot=          32
 NSgBfM=   615   614   614   615   615 MxSgAt=    77 MxSgA2=    77.
 Leave Link  302 at Thu Feb  7 10:22:26 2019, MaxMem=   104857600 cpu:              91.9 elap:               4.0
 (Enter /home/xinyan/g16/l303.exe)
 DipDrv:  MaxL=1.
 Leave Link  303 at Thu Feb  7 10:22:26 2019, MaxMem=   104857600 cpu:               6.2 elap:               0.3
 (Enter /home/xinyan/g16/l401.exe)
 ExpMin= 1.17D-01 ExpMax= 2.19D+04 ExpMxC= 3.30D+03 IAcc=3 IRadAn=         5 AccDes= 0.00D+00
 Harris functional with IExCor= 1009 and IRadAn=       5 diagonalized for initial guess.
 HarFok:  IExCor= 1009 AccDes= 0.00D+00 IRadAn=         5 IDoV= 1 UseB2=F ITyADJ=14
 ICtDFT=  3500011 ScaDFX=  1.000000  1.000000  1.000000  1.000000
 FoFCou: FMM=F IPFlag=           0 FMFlag=      100000 FMFlg1=        2001
         NFxFlg=           0 DoJE=T BraDBF=F KetDBF=T FulRan=T
         wScrn=  0.000000 ICntrl=       500 IOpCl=  0 I1Cent=   200000004 NGrid=           0
         NMat0=    1 NMatS0=      1 NMatT0=    0 NMatD0=    1 NMtDS0=    0 NMtDT0=    0
 Petite list used in FoFCou.
 Harris En= -1990.53566768749    
 JPrj=0 DoOrth=F DoCkMO=F.
 Leave Link  401 at Thu Feb  7 10:22:32 2019, MaxMem=   104857600 cpu:             128.2 elap:               5.6
 (Enter /home/xinyan/g16/l502.exe)
 Integral symmetry usage will be decided dynamically.
 Closed shell SCF:
 Using DIIS extrapolation, IDIIS=  1040.
 NGot=   104857600 LenX=   104051656 LenY=   103659154
 Requested convergence on RMS density matrix=1.00D-08 within 128 cycles.
 Requested convergence on MAX density matrix=1.00D-06.
 Requested convergence on             energy=1.00D-06.
 No special actions if energy rises.
 Fock matrices will be formed incrementally for  20 cycles.
 Integral accuracy reduced to 1.0D-05 until final iterations.

 Cycle   1  Pass 0  IDiag  1:
 FoFJK:  IHMeth= 1 ICntrl=       0 DoSepK=F KAlg= 0 I1Cent=           0 FoldK=F
 IRaf= 990000000 NMat=       1 IRICut=       1 DoRegI=T DoRafI=F ISym2E= 0 IDoP0=0 IntGTp=1.
 FoFCou: FMM=T IPFlag=           0 FMFlag=      100000 FMFlg1=        2001
         NFxFlg=           0 DoJE=F BraDBF=F KetDBF=F FulRan=T
         wScrn=  0.000000 ICntrl=         0 IOpCl=  0 I1Cent=           0 NGrid=           0
         NMat0=    1 NMatS0=      1 NMatT0=    0 NMatD0=    1 NMtDS0=    0 NMtDT0=    0
 Symmetry not used in FoFCou.
 FMM levels:  10  Number of levels for PrismC:   9
 E= -1990.28765854813    
 DIIS: error= 2.56D-02 at cycle   1 NSaved=   1.
 NSaved= 1 IEnMin= 1 EnMin= -1990.28765854813     IErMin= 1 ErrMin= 2.56D-02
 ErrMax= 2.56D-02  0.00D+00 EMaxC= 1.00D-01 BMatC= 1.25D+00 BMatP= 1.25D+00
 IDIUse=3 WtCom= 7.44D-01 WtEn= 2.56D-01
 Coeff-Com:  0.100D+01
 Coeff-En:   0.100D+01
 Coeff:      0.100D+01
 Gap=     0.358 Goal=   None    Shift=    0.000
 GapD=    0.358 DampG=1.000 DampE=0.500 DampFc=0.5000 IDamp=-1.
 Damping current iteration by 5.00D-01
 RMSDP=3.49D-03 MaxDP=3.47D-01              OVMax= 1.97D-01

 Cycle   2  Pass 0  IDiag  1:
 RMSU=  1.74D-03    CP:  9.89D-01
 E= -1990.80315875460     Delta-E=       -0.515500206471 Rises=F Damp=T
 DIIS: error= 8.05D-03 at cycle   2 NSaved=   2.
 NSaved= 2 IEnMin= 2 EnMin= -1990.80315875460     IErMin= 2 ErrMin= 8.05D-03
 ErrMax= 8.05D-03  0.00D+00 EMaxC= 1.00D-01 BMatC= 9.38D-02 BMatP= 1.25D+00
 IDIUse=3 WtCom= 9.19D-01 WtEn= 8.05D-02
 Coeff-Com: -0.250D-01 0.102D+01
 Coeff-En:   0.000D+00 0.100D+01
 Coeff:     -0.230D-01 0.102D+01
 Gap=     0.260 Goal=   None    Shift=    0.000
 RMSDP=8.70D-04 MaxDP=7.78D-02 DE=-5.16D-01 OVMax= 1.28D-01

 Cycle   3  Pass 0  IDiag  1:
 RMSU=  8.57D-04    CP:  9.82D-01  9.34D-01
 E= -1991.31289782231     Delta-E=       -0.509739067712 Rises=F Damp=F
 DIIS: error= 8.48D-03 at cycle   3 NSaved=   3.
 NSaved= 3 IEnMin= 3 EnMin= -1991.31289782231     IErMin= 2 ErrMin= 8.05D-03
 ErrMax= 8.48D-03  0.00D+00 EMaxC= 1.00D-01 BMatC= 5.16D-02 BMatP= 9.38D-02
 IDIUse=3 WtCom= 9.15D-01 WtEn= 8.48D-02
 Coeff-Com: -0.700D-01 0.444D+00 0.626D+00
 Coeff-En:   0.000D+00 0.000D+00 0.100D+01
 Coeff:     -0.641D-01 0.406D+00 0.658D+00
 Gap=     0.230 Goal=   None    Shift=    0.000
 RMSDP=5.26D-04 MaxDP=3.72D-02 DE=-5.10D-01 OVMax= 6.36D-02

 Cycle   4  Pass 0  IDiag  1:
 RMSU=  3.43D-04    CP:  9.85D-01  1.04D+00  5.95D-01
 E= -1991.34417125759     Delta-E=       -0.031273435283 Rises=F Damp=F
 DIIS: error= 4.13D-03 at cycle   4 NSaved=   4.
 NSaved= 4 IEnMin= 4 EnMin= -1991.34417125759     IErMin= 4 ErrMin= 4.13D-03
 ErrMax= 4.13D-03  0.00D+00 EMaxC= 1.00D-01 BMatC= 1.31D-02 BMatP= 5.16D-02
 IDIUse=3 WtCom= 9.59D-01 WtEn= 4.13D-02
 Coeff-Com: -0.271D-01 0.890D-01 0.362D+00 0.576D+00
 Coeff-En:   0.000D+00 0.000D+00 0.217D+00 0.783D+00
 Coeff:     -0.260D-01 0.853D-01 0.356D+00 0.585D+00
 Gap=     0.227 Goal=   None    Shift=    0.000
 RMSDP=2.14D-04 MaxDP=1.19D-02 DE=-3.13D-02 OVMax= 3.37D-02

 Cycle   5  Pass 0  IDiag  1:
 RMSU=  8.70D-05    CP:  9.84D-01  1.03D+00  7.31D-01  5.56D-01
 E= -1991.35505774459     Delta-E=       -0.010886486992 Rises=F Damp=F
 DIIS: error= 1.04D-03 at cycle   5 NSaved=   5.
 NSaved= 5 IEnMin= 5 EnMin= -1991.35505774459     IErMin= 5 ErrMin= 1.04D-03
 ErrMax= 1.04D-03  0.00D+00 EMaxC= 1.00D-01 BMatC= 6.12D-04 BMatP= 1.31D-02
 IDIUse=3 WtCom= 9.90D-01 WtEn= 1.04D-02
 Coeff-Com: -0.889D-02 0.207D-01 0.138D+00 0.287D+00 0.563D+00
 Coeff-En:   0.000D+00 0.000D+00 0.000D+00 0.000D+00 0.100D+01
 Coeff:     -0.880D-02 0.205D-01 0.137D+00 0.284D+00 0.568D+00
 Gap=     0.227 Goal=   None    Shift=    0.000
 RMSDP=5.16D-05 MaxDP=3.83D-03 DE=-1.09D-02 OVMax= 9.83D-03

 Cycle   6  Pass 0  IDiag  1:
 RMSU=  2.74D-05    CP:  9.84D-01  1.03D+00  7.29D-01  6.28D-01  5.89D-01
 E= -1991.35558879493     Delta-E=       -0.000531050340 Rises=F Damp=F
 DIIS: error= 3.32D-04 at cycle   6 NSaved=   6.
 NSaved= 6 IEnMin= 6 EnMin= -1991.35558879493     IErMin= 6 ErrMin= 3.32D-04
 ErrMax= 3.32D-04  0.00D+00 EMaxC= 1.00D-01 BMatC= 6.05D-05 BMatP= 6.12D-04
 IDIUse=3 WtCom= 9.97D-01 WtEn= 3.32D-03
 Coeff-Com: -0.164D-02 0.146D-02 0.305D-01 0.812D-01 0.291D+00 0.598D+00
 Coeff-En:   0.000D+00 0.000D+00 0.000D+00 0.000D+00 0.402D-02 0.996D+00
 Coeff:     -0.163D-02 0.146D-02 0.304D-01 0.809D-01 0.290D+00 0.599D+00
 Gap=     0.227 Goal=   None    Shift=    0.000
 RMSDP=1.51D-05 MaxDP=8.80D-04 DE=-5.31D-04 OVMax= 2.56D-03

 Cycle   7  Pass 0  IDiag  1:
 RMSU=  9.38D-06    CP:  9.84D-01  1.03D+00  7.32D-01  6.28D-01  6.73D-01
                    CP:  6.79D-01
 E= -1991.35564649422     Delta-E=       -0.000057699298 Rises=F Damp=F
 DIIS: error= 4.29D-05 at cycle   7 NSaved=   7.
 NSaved= 7 IEnMin= 7 EnMin= -1991.35564649422     IErMin= 7 ErrMin= 4.29D-05
 ErrMax= 4.29D-05  0.00D+00 EMaxC= 1.00D-01 BMatC= 3.69D-06 BMatP= 6.05D-05
 IDIUse=1 WtCom= 1.00D+00 WtEn= 0.00D+00
 Coeff-Com:  0.196D-03-0.138D-02-0.155D-02 0.491D-02 0.690D-01 0.249D+00
 Coeff-Com:  0.680D+00
 Coeff:      0.196D-03-0.138D-02-0.155D-02 0.491D-02 0.690D-01 0.249D+00
 Coeff:      0.680D+00
 Gap=     0.227 Goal=   None    Shift=    0.000
 RMSDP=4.40D-06 MaxDP=2.33D-04 DE=-5.77D-05 OVMax= 5.70D-04

 Initial convergence to 1.0D-05 achieved.  Increase integral accuracy.
 Cycle   8  Pass 1  IDiag  1:
 E= -1991.35570127335     Delta-E=       -0.000054779127 Rises=F Damp=F
 DIIS: error= 2.00D-04 at cycle   1 NSaved=   1.
 NSaved= 1 IEnMin= 1 EnMin= -1991.35570127335     IErMin= 1 ErrMin= 2.00D-04
 ErrMax= 2.00D-04  0.00D+00 EMaxC= 1.00D-01 BMatC= 1.34D-05 BMatP= 1.34D-05
 IDIUse=3 WtCom= 9.98D-01 WtEn= 2.00D-03
 Coeff-Com:  0.100D+01
 Coeff-En:   0.100D+01
 Coeff:      0.100D+01
 Gap=     0.227 Goal=   None    Shift=    0.000
 RMSDP=4.40D-06 MaxDP=2.33D-04 DE=-5.48D-05 OVMax= 4.65D-04

 Cycle   9  Pass 1  IDiag  1:
 RMSU=  7.42D-05    CP:  1.00D+00
 E= -1991.35571342793     Delta-E=       -0.000012154575 Rises=F Damp=F
 DIIS: error= 1.89D-05 at cycle   2 NSaved=   2.
 NSaved= 2 IEnMin= 2 EnMin= -1991.35571342793     IErMin= 2 ErrMin= 1.89D-05
 ErrMax= 1.89D-05  0.00D+00 EMaxC= 1.00D-01 BMatC= 6.82D-07 BMatP= 1.34D-05
 IDIUse=1 WtCom= 1.00D+00 WtEn= 0.00D+00
 Coeff-Com:  0.575D-01 0.943D+00
 Coeff:      0.575D-01 0.943D+00
 Gap=     0.227 Goal=   None    Shift=    0.000
 RMSDP=3.76D-06 MaxDP=2.00D-04 DE=-1.22D-05 OVMax= 3.76D-04

 Cycle  10  Pass 1  IDiag  1:
 RMSU=  3.07D-06    CP:  1.00D+00  1.03D+00
 E= -1991.35571314235     Delta-E=        0.000000285575 Rises=F Damp=F
 DIIS: error= 3.33D-05 at cycle   3 NSaved=   3.
 NSaved= 3 IEnMin= 2 EnMin= -1991.35571342793     IErMin= 2 ErrMin= 1.89D-05
 ErrMax= 3.33D-05  0.00D+00 EMaxC= 1.00D-01 BMatC= 1.06D-06 BMatP= 6.82D-07
 IDIUse=1 WtCom= 1.00D+00 WtEn= 0.00D+00
 Coeff-Com: -0.145D-01 0.560D+00 0.454D+00
 Coeff:     -0.145D-01 0.560D+00 0.454D+00
 Gap=     0.227 Goal=   None    Shift=    0.000
 RMSDP=1.69D-06 MaxDP=1.21D-04 DE= 2.86D-07 OVMax= 2.28D-04

 Cycle  11  Pass 1  IDiag  1:
 RMSU=  6.52D-07    CP:  1.00D+00  1.03D+00  4.99D-01
 E= -1991.35571403604     Delta-E=       -0.000000893690 Rises=F Damp=F
 DIIS: error= 4.41D-06 at cycle   4 NSaved=   4.
 NSaved= 4 IEnMin= 4 EnMin= -1991.35571403604     IErMin= 4 ErrMin= 4.41D-06
 ErrMax= 4.41D-06  0.00D+00 EMaxC= 1.00D-01 BMatC= 1.19D-08 BMatP= 6.82D-07
 IDIUse=1 WtCom= 1.00D+00 WtEn= 0.00D+00
 Coeff-Com: -0.808D-02 0.255D+00 0.220D+00 0.533D+00
 Coeff:     -0.808D-02 0.255D+00 0.220D+00 0.533D+00
 Gap=     0.227 Goal=   None    Shift=    0.000
 RMSDP=2.28D-07 MaxDP=1.29D-05 DE=-8.94D-07 OVMax= 4.24D-05

 Cycle  12  Pass 1  IDiag  1:
 RMSU=  2.01D-07    CP:  1.00D+00  1.03D+00  5.21D-01  8.70D-01
 E= -1991.35571404734     Delta-E=       -0.000000011303 Rises=F Damp=F
 DIIS: error= 1.57D-06 at cycle   5 NSaved=   5.
 NSaved= 5 IEnMin= 5 EnMin= -1991.35571404734     IErMin= 5 ErrMin= 1.57D-06
 ErrMax= 1.57D-06  0.00D+00 EMaxC= 1.00D-01 BMatC= 1.02D-09 BMatP= 1.19D-08
 IDIUse=1 WtCom= 1.00D+00 WtEn= 0.00D+00
 Coeff-Com: -0.777D-03 0.888D-02 0.101D-01 0.209D+00 0.773D+00
 Coeff:     -0.777D-03 0.888D-02 0.101D-01 0.209D+00 0.773D+00
 Gap=     0.227 Goal=   None    Shift=    0.000
 RMSDP=9.24D-08 MaxDP=4.11D-06 DE=-1.13D-08 OVMax= 1.35D-05

 Cycle  13  Pass 1  IDiag  1:
 RMSU=  7.00D-08    CP:  1.00D+00  1.03D+00  5.23D-01  9.54D-01  9.04D-01
 E= -1991.35571404833     Delta-E=       -0.000000000990 Rises=F Damp=F
 DIIS: error= 4.80D-07 at cycle   6 NSaved=   6.
 NSaved= 6 IEnMin= 6 EnMin= -1991.35571404833     IErMin= 6 ErrMin= 4.80D-07
 ErrMax= 4.80D-07  0.00D+00 EMaxC= 1.00D-01 BMatC= 2.53D-10 BMatP= 1.02D-09
 IDIUse=1 WtCom= 1.00D+00 WtEn= 0.00D+00
 Coeff-Com:  0.873D-03-0.358D-01-0.300D-01 0.366D-01 0.417D+00 0.612D+00
 Coeff:      0.873D-03-0.358D-01-0.300D-01 0.366D-01 0.417D+00 0.612D+00
 Gap=     0.227 Goal=   None    Shift=    0.000
 RMSDP=3.83D-08 MaxDP=1.86D-06 DE=-9.90D-10 OVMax= 6.89D-06

 Cycle  14  Pass 1  IDiag  1:
 RMSU=  2.85D-08    CP:  1.00D+00  1.03D+00  5.24D-01  9.75D-01  9.88D-01
                    CP:  8.16D-01
 E= -1991.35571404870     Delta-E=       -0.000000000372 Rises=F Damp=F
 DIIS: error= 1.64D-07 at cycle   7 NSaved=   7.
 NSaved= 7 IEnMin= 7 EnMin= -1991.35571404870     IErMin= 7 ErrMin= 1.64D-07
 ErrMax= 1.64D-07  0.00D+00 EMaxC= 1.00D-01 BMatC= 2.05D-11 BMatP= 2.53D-10
 IDIUse=1 WtCom= 1.00D+00 WtEn= 0.00D+00
 Coeff-Com:  0.450D-03-0.163D-01-0.142D-01-0.123D-02 0.103D+00 0.273D+00
 Coeff-Com:  0.656D+00
 Coeff:      0.450D-03-0.163D-01-0.142D-01-0.123D-02 0.103D+00 0.273D+00
 Coeff:      0.656D+00
 Gap=     0.227 Goal=   None    Shift=    0.000
 RMSDP=1.15D-08 MaxDP=6.28D-07 DE=-3.72D-10 OVMax= 1.91D-06

 Cycle  15  Pass 1  IDiag  1:
 RMSU=  8.53D-09    CP:  1.00D+00  1.03D+00  5.25D-01  9.80D-01  9.94D-01
                    CP:  9.08D-01  1.01D+00
 E= -1991.35571404871     Delta-E=       -0.000000000005 Rises=F Damp=F
 DIIS: error= 4.55D-08 at cycle   8 NSaved=   8.
 NSaved= 8 IEnMin= 8 EnMin= -1991.35571404871     IErMin= 8 ErrMin= 4.55D-08
 ErrMax= 4.55D-08  0.00D+00 EMaxC= 1.00D-01 BMatC= 2.29D-12 BMatP= 2.05D-11
 IDIUse=1 WtCom= 1.00D+00 WtEn= 0.00D+00
 Coeff-Com: -0.141D-05 0.888D-03 0.333D-03-0.660D-02-0.481D-01-0.122D-01
 Coeff-Com:  0.233D+00 0.833D+00
 Coeff:     -0.141D-05 0.888D-03 0.333D-03-0.660D-02-0.481D-01-0.122D-01
 Coeff:      0.233D+00 0.833D+00
 Gap=     0.227 Goal=   None    Shift=    0.000
 RMSDP=5.13D-09 MaxDP=2.63D-07 DE=-4.55D-12 OVMax= 9.04D-07

 SCF Done:  E(RM062X) =  -1991.35571405     A.U. after   15 cycles
            NFock= 15  Conv=0.51D-08     -V/T= 2.0076
 KE= 1.976413439190D+03 PE=-1.456675681138D+04 EE= 5.641696028954D+03
 Leave Link  502 at Thu Feb  7 10:25:08 2019, MaxMem=   104857600 cpu:            3747.3 elap:             156.5
 (Enter /home/xinyan/g16/l601.exe)
 Copying SCF densities to generalized density rwf, IOpCl= 0 IROHF=0.

 **********************************************************************

            Population analysis using the SCF density.

 **********************************************************************

 Orbital symmetries:
       Occupied  (A) (A) (A) (A) (A) (A) (A) (A) (A) (A) (A) (A)
                 (A) (A) (A) (A) (A) (A) (A) (A) (A) (A) (A) (A)
                 (A) (A) (A) (A) (A) (A) (A) (A) (A) (A) (A) (A)
                 (A) (A) (A) (A) (A) (A) (A) (A) (A) (A) (A) (A)
                 (A) (A) (A) (A) (A) (A) (A) (A) (A) (A) (A) (A)
                 (A) (A) (A) (A) (A) (A) (A) (A) (A) (A) (A) (A)
                 (A) (A) (A) (A) (A) (A) (A) (A) (A) (A) (A) (A)
                 (A) (A) (A) (A) (A) (A) (A) (A) (A) (A) (A) (A)
                 (A) (A) (A) (A) (A) (A) (A) (A) (A) (A) (A) (A)
                 (A) (A) (A) (A) (A) (A) (A) (A) (A) (A) (A) (A)
                 (A) (A) (A) (A) (A) (A) (A) (A) (A) (A) (A) (A)
                 (A) (A) (A) (A) (A) (A) (A) (A)
       Virtual   (A) (A) (A) (A) (A) (A) (A) (A) (A) (A) (A) (A)
                 (A) (A) (A) (A) (A) (A) (A) (A) (A) (A) (A) (A)
                 (A) (A) (A) (A) (A) (A) (A) (A) (A) (A) (A) (A)
                 (A) (A) (A) (A) (A) (A) (A) (A) (A) (A) (A) (A)
                 (A) (A) (A) (A) (A) (A) (A) (A) (A) (A) (A) (A)
                 (A) (A) (A) (A) (A) (A) (A) (A) (A) (A) (A) (A)
                 (A) (A) (A) (A) (A) (A) (A) (A) (A) (A) (A) (A)
                 (A) (A) (A) (A) (A) (A) (A) (A) (A) (A) (A) (A)
                 (A) (A) (A) (A) (A) (A) (A) (A) (A) (A) (A) (A)
                 (A) (A) (A) (A) (A) (A) (A) (A) (A) (A) (A) (A)
                 (A) (A) (A) (A) (A) (A) (A) (A) (A) (A) (A) (A)
                 (A) (A) (A) (A) (A) (A) (A) (A) (A) (A) (A) (A)
                 (A) (A) (A) (A) (A) (A) (A) (A) (A) (A) (A) (A)
                 (A) (A) (A) (A) (A) (A) (A) (A) (A) (A) (A) (A)
                 (A) (A) (A) (A) (A) (A) (A) (A) (A) (A) (A) (A)
                 (A) (A) (A) (A) (A) (A) (A) (A) (A) (A) (A) (A)
                 (A) (A) (A) (A) (A) (A) (A) (A) (A) (A) (A) (A)
                 (A) (A) (A) (A) (A) (A) (A) (A) (A) (A) (A) (A)
                 (A) (A) (A) (A) (A) (A) (A) (A) (A) (A) (A) (A)
                 (A) (A) (A) (A) (A) (A) (A) (A) (A) (A) (A) (A)
                 (A) (A) (A) (A) (A) (A) (A) (A) (A) (A) (A) (A)
                 (A) (A) (A) (A) (A) (A) (A) (A) (A) (A) (A) (A)
                 (A) (A) (A) (A) (A) (A) (A) (A) (A) (A) (A) (A)
                 (A) (A) (A) (A) (A) (A) (A) (A) (A) (A) (A) (A)
                 (A) (A) (A) (A) (A) (A) (A) (A) (A) (A) (A) (A)
                 (A) (A) (A) (A) (A) (A) (A) (A) (A) (A) (A) (A)
                 (A) (A) (A) (A) (A) (A) (A) (A) (A) (A) (A) (A)
                 (A) (A) (A) (A) (A) (A) (A) (A) (A) (A) (A) (A)
                 (A) (A) (A) (A) (A) (A) (A) (A) (A) (A) (A) (A)
                 (A) (A) (A) (A) (A) (A) (A) (A) (A) (A) (A) (A)
                 (A) (A) (A) (A) (A) (A) (A) (A) (A) (A) (A) (A)
                 (A) (A) (A) (A) (A) (A) (A) (A) (A) (A) (A) (A)
                 (A) (A) (A) (A) (A) (A) (A) (A) (A) (A) (A) (A)
                 (A) (A) (A) (A) (A) (A) (A) (A) (A) (A) (A) (A)
                 (A) (A) (A) (A) (A) (A) (A) (A) (A) (A) (A) (A)
                 (A) (A) (A) (A) (A) (A) (A) (A) (A) (A) (A) (A)
                 (A) (A) (A) (A) (A) (A) (A) (A) (A) (A) (A) (A)
                 (A) (A) (A) (A) (A) (A) (A) (A) (A) (A) (A) (A)
                 (A) (A) (A) (A) (A) (A) (A) (A) (A) (A) (A) (A)
                 (A) (A) (A) (A) (A) (A) (A) (A) (A) (A) (A) (A)
                 (A) (A) (A) (A) (A) (A)
 The electronic state is 1-A.
 Alpha  occ. eigenvalues --  -90.14774 -19.62386 -19.62119 -19.58595 -19.56972
 Alpha  occ. eigenvalues --  -19.50579 -14.85192 -14.80037 -14.76603 -10.63158
 Alpha  occ. eigenvalues --  -10.62617 -10.62170 -10.62133 -10.61087 -10.59889
 Alpha  occ. eigenvalues --  -10.57769 -10.57760 -10.57611 -10.57026 -10.56976
 Alpha  occ. eigenvalues --  -10.56897 -10.56335 -10.55880 -10.55112 -10.55091
 Alpha  occ. eigenvalues --  -10.55030 -10.54872 -10.54684 -10.54672 -10.54649
 Alpha  occ. eigenvalues --  -10.54463 -10.54062 -10.53116 -10.51098 -10.50987
 Alpha  occ. eigenvalues --  -10.49539  -8.45743  -6.37970  -6.37921  -6.37789
 Alpha  occ. eigenvalues --   -1.22558  -1.13470  -1.12847  -1.10765  -1.08878
 Alpha  occ. eigenvalues --   -1.05910  -1.02477  -0.99878  -0.95843  -0.95213
 Alpha  occ. eigenvalues --   -0.93477  -0.90129  -0.88575  -0.86539  -0.85352
 Alpha  occ. eigenvalues --   -0.84933  -0.84856  -0.83708  -0.83299  -0.83073
 Alpha  occ. eigenvalues --   -0.76573  -0.75964  -0.75559  -0.74247  -0.73275
 Alpha  occ. eigenvalues --   -0.71767  -0.68227  -0.68151  -0.67754  -0.67494
 Alpha  occ. eigenvalues --   -0.66439  -0.65491  -0.64867  -0.63347  -0.60504
 Alpha  occ. eigenvalues --   -0.60377  -0.59956  -0.59429  -0.57928  -0.57691
 Alpha  occ. eigenvalues --   -0.57161  -0.56405  -0.55688  -0.55104  -0.54381
 Alpha  occ. eigenvalues --   -0.53564  -0.53083  -0.52682  -0.52476  -0.52158
 Alpha  occ. eigenvalues --   -0.51691  -0.50803  -0.50149  -0.49918  -0.49351
 Alpha  occ. eigenvalues --   -0.49232  -0.48953  -0.48475  -0.48172  -0.48004
 Alpha  occ. eigenvalues --   -0.47727  -0.47630  -0.47165  -0.46161  -0.45808
 Alpha  occ. eigenvalues --   -0.45247  -0.45153  -0.44384  -0.43985  -0.43200
 Alpha  occ. eigenvalues --   -0.42479  -0.42321  -0.41164  -0.40884  -0.40767
 Alpha  occ. eigenvalues --   -0.40674  -0.40404  -0.40105  -0.39840  -0.39400
 Alpha  occ. eigenvalues --   -0.39170  -0.38891  -0.38659  -0.38330  -0.37820
 Alpha  occ. eigenvalues --   -0.37399  -0.36502  -0.36437  -0.36070  -0.35015
 Alpha  occ. eigenvalues --   -0.34532  -0.34279  -0.31756  -0.31368  -0.30012
 Alpha  occ. eigenvalues --   -0.29256  -0.28825  -0.27754  -0.24219  -0.23943
 Alpha virt. eigenvalues --   -0.01231   0.00573   0.03216   0.03559   0.10146
 Alpha virt. eigenvalues --    0.10591   0.11330   0.12561   0.13172   0.13304
 Alpha virt. eigenvalues --    0.14138   0.14435   0.15035   0.15513   0.15551
 Alpha virt. eigenvalues --    0.16203   0.16466   0.16934   0.17315   0.17664
 Alpha virt. eigenvalues --    0.17948   0.18063   0.18185   0.18683   0.19061
 Alpha virt. eigenvalues --    0.19234   0.19416   0.19892   0.20001   0.20210
 Alpha virt. eigenvalues --    0.20458   0.20925   0.21152   0.21287   0.21423
 Alpha virt. eigenvalues --    0.21972   0.22128   0.22520   0.22850   0.23308
 Alpha virt. eigenvalues --    0.23558   0.23978   0.24513   0.24629   0.24793
 Alpha virt. eigenvalues --    0.25160   0.25387   0.25692   0.26111   0.26622
 Alpha virt. eigenvalues --    0.26894   0.27222   0.27945   0.28404   0.28532
 Alpha virt. eigenvalues --    0.28870   0.29354   0.29565   0.30370   0.30842
 Alpha virt. eigenvalues --    0.30936   0.31679   0.31877   0.32132   0.32278
 Alpha virt. eigenvalues --    0.33232   0.33959   0.34928   0.35357   0.35593
 Alpha virt. eigenvalues --    0.36060   0.37239   0.37683   0.37967   0.38948
 Alpha virt. eigenvalues --    0.39634   0.40148   0.40327   0.42268   0.42723
 Alpha virt. eigenvalues --    0.44053   0.44700   0.46545   0.47880   0.49004
 Alpha virt. eigenvalues --    0.49211   0.50935   0.52352   0.53332   0.54446
 Alpha virt. eigenvalues --    0.54898   0.55488   0.55951   0.56788   0.57275
 Alpha virt. eigenvalues --    0.57627   0.57960   0.58644   0.59209   0.59550
 Alpha virt. eigenvalues --    0.59927   0.60170   0.60476   0.60625   0.60939
 Alpha virt. eigenvalues --    0.61381   0.61783   0.62457   0.62488   0.62968
 Alpha virt. eigenvalues --    0.63699   0.63921   0.64401   0.64749   0.65575
 Alpha virt. eigenvalues --    0.66034   0.66128   0.66634   0.67489   0.67912
 Alpha virt. eigenvalues --    0.68160   0.68680   0.69394   0.70004   0.70482
 Alpha virt. eigenvalues --    0.70835   0.71533   0.71922   0.72960   0.73143
 Alpha virt. eigenvalues --    0.73534   0.74409   0.74691   0.75129   0.75861
 Alpha virt. eigenvalues --    0.76643   0.77315   0.77553   0.77838   0.78841
 Alpha virt. eigenvalues --    0.79108   0.79647   0.79820   0.80157   0.80964
 Alpha virt. eigenvalues --    0.81190   0.81680   0.82986   0.83562   0.84232
 Alpha virt. eigenvalues --    0.84511   0.85149   0.85237   0.85449   0.86317
 Alpha virt. eigenvalues --    0.87563   0.88377   0.88809   0.89278   0.89656
 Alpha virt. eigenvalues --    0.89949   0.90087   0.90345   0.90850   0.91346
 Alpha virt. eigenvalues --    0.91740   0.92115   0.92397   0.92747   0.93383
 Alpha virt. eigenvalues --    0.93524   0.93987   0.94327   0.94790   0.95069
 Alpha virt. eigenvalues --    0.95373   0.95547   0.96344   0.96678   0.96806
 Alpha virt. eigenvalues --    0.96894   0.97511   0.97859   0.97996   0.98684
 Alpha virt. eigenvalues --    0.98942   0.99405   0.99698   0.99763   1.00688
 Alpha virt. eigenvalues --    1.01043   1.01335   1.02043   1.02487   1.02689
 Alpha virt. eigenvalues --    1.02906   1.03733   1.04229   1.04474   1.05268
 Alpha virt. eigenvalues --    1.06138   1.06537   1.07423   1.08228   1.08623
 Alpha virt. eigenvalues --    1.09541   1.09828   1.10562   1.11422   1.11794
 Alpha virt. eigenvalues --    1.12681   1.13072   1.13500   1.14273   1.15330
 Alpha virt. eigenvalues --    1.16161   1.17017   1.18065   1.18801   1.18921
 Alpha virt. eigenvalues --    1.19627   1.19815   1.20257   1.20971   1.21181
 Alpha virt. eigenvalues --    1.22930   1.23605   1.24299   1.24577   1.25483
 Alpha virt. eigenvalues --    1.25965   1.26506   1.27858   1.28573   1.29926
 Alpha virt. eigenvalues --    1.30653   1.31212   1.32162   1.32336   1.32692
 Alpha virt. eigenvalues --    1.33331   1.34328   1.35182   1.35482   1.36582
 Alpha virt. eigenvalues --    1.37115   1.38228   1.38956   1.40775   1.40935
 Alpha virt. eigenvalues --    1.41519   1.42008   1.44112   1.45555   1.46511
 Alpha virt. eigenvalues --    1.47445   1.47602   1.48812   1.49534   1.50796
 Alpha virt. eigenvalues --    1.51008   1.52141   1.52251   1.52945   1.54117
 Alpha virt. eigenvalues --    1.54511   1.54915   1.55180   1.55716   1.57100
 Alpha virt. eigenvalues --    1.57398   1.58236   1.59280   1.59790   1.60951
 Alpha virt. eigenvalues --    1.62184   1.62738   1.63991   1.64519   1.67015
 Alpha virt. eigenvalues --    1.68785   1.69615   1.69890   1.71905   1.74011
 Alpha virt. eigenvalues --    1.74069   1.74696   1.75720   1.76525   1.76789
 Alpha virt. eigenvalues --    1.78388   1.79055   1.80424   1.81025   1.82243
 Alpha virt. eigenvalues --    1.83459   1.83865   1.84049   1.85408   1.85867
 Alpha virt. eigenvalues --    1.86309   1.86848   1.87549   1.87702   1.88746
 Alpha virt. eigenvalues --    1.89208   1.89514   1.90295   1.90904   1.91047
 Alpha virt. eigenvalues --    1.92406   1.93139   1.93578   1.93786   1.94342
 Alpha virt. eigenvalues --    1.94719   1.95374   1.95848   1.96763   1.97209
 Alpha virt. eigenvalues --    1.97445   1.99108   1.99253   2.00048   2.00622
 Alpha virt. eigenvalues --    2.00943   2.01809   2.02100   2.03051   2.04186
 Alpha virt. eigenvalues --    2.04768   2.05659   2.05825   2.06320   2.06713
 Alpha virt. eigenvalues --    2.07198   2.07527   2.08491   2.09328   2.09540
 Alpha virt. eigenvalues --    2.10084   2.10433   2.10643   2.11469   2.11861
 Alpha virt. eigenvalues --    2.12565   2.13391   2.14486   2.14811   2.15298
 Alpha virt. eigenvalues --    2.16088   2.16516   2.17457   2.18013   2.18320
 Alpha virt. eigenvalues --    2.19323   2.19835   2.20574   2.20898   2.20999
 Alpha virt. eigenvalues --    2.22059   2.22787   2.23051   2.23633   2.23678
 Alpha virt. eigenvalues --    2.24699   2.24875   2.25616   2.26764   2.27528
 Alpha virt. eigenvalues --    2.28067   2.29048   2.29843   2.30688   2.31061
 Alpha virt. eigenvalues --    2.32004   2.33486   2.34635   2.34879   2.35186
 Alpha virt. eigenvalues --    2.36006   2.36991   2.37514   2.38030   2.38259
 Alpha virt. eigenvalues --    2.39758   2.40813   2.41005   2.41353   2.41683
 Alpha virt. eigenvalues --    2.42600   2.44518   2.45780   2.46503   2.47644
 Alpha virt. eigenvalues --    2.49354   2.49823   2.50901   2.51626   2.52543
 Alpha virt. eigenvalues --    2.53375   2.54163   2.56205   2.56968   2.58907
 Alpha virt. eigenvalues --    2.60809   2.61298   2.61630   2.62369   2.63454
 Alpha virt. eigenvalues --    2.63905   2.64882   2.65149   2.67215   2.68306
 Alpha virt. eigenvalues --    2.69055   2.69503   2.70056   2.71462   2.71819
 Alpha virt. eigenvalues --    2.72775   2.74384   2.75693   2.76059   2.77670
 Alpha virt. eigenvalues --    2.78600   2.79271   2.80240   2.81062   2.81316
 Alpha virt. eigenvalues --    2.83369   2.86011   2.86308   2.86573   2.88485
 Alpha virt. eigenvalues --    2.89861   2.91204   2.92997   2.93317   2.96082
 Alpha virt. eigenvalues --    3.00031   3.00411   3.00831   3.04869   3.10254
 Alpha virt. eigenvalues --    3.14299   3.17748   3.24152   3.41617   3.42566
 Alpha virt. eigenvalues --    3.93310   4.00202   4.03674   4.08823   4.12722
 Alpha virt. eigenvalues --    4.13417   4.15175   4.15978   4.17872   4.18883
 Alpha virt. eigenvalues --    4.20423   4.22099   4.23959   4.26164   4.26911
 Alpha virt. eigenvalues --    4.28436   4.30983   4.32613   4.34807   4.35740
 Alpha virt. eigenvalues --    4.37995   4.39632   4.40827   4.43286   4.45501
 Alpha virt. eigenvalues --    4.46123   4.55608   4.58137   4.59162   4.61021
 Alpha virt. eigenvalues --    4.62453   4.65940   4.73198   4.74816   4.76869
 Alpha virt. eigenvalues --    4.78227
          Condensed to atoms (all electrons):
 Mulliken charges:
               1
     1  C   -0.306420
     2  C   -0.307803
     3  C   -0.310959
     4  C   -0.060077
     5  C    0.064130
     6  C   -0.306984
     7  H    0.175554
     8  H    0.163265
     9  H    0.166801
    10  H    0.151023
    11  H    0.164998
    12  H    0.207006
    13  H    0.174973
    14  H    0.193055
    15  H    0.161054
    16  H    0.156235
    17  N   -0.437458
    18  C    0.078459
    19  C    0.078951
    20  C   -0.208519
    21  H    0.203062
    22  C   -0.220161
    23  H    0.243230
    24  C    0.449632
    25  H    0.192037
    26  H    0.209769
    27  N   -0.518514
    28  C   -0.166151
    29  H    0.166922
    30  H    0.222022
    31  C   -0.145908
    32  H    0.160384
    33  H    0.205534
    34  N   -0.808279
    35  S    1.238972
    36  O   -0.603201
    37  O   -0.591460
    38  C    0.050821
    39  C   -0.196183
    40  C   -0.192380
    41  C   -0.172300
    42  C   -0.165432
    43  C   -0.205065
    44  H    0.233016
    45  H    0.141813
    46  H    0.156173
    47  H    0.159753
    48  H    0.154073
    49  O   -0.594863
    50  H    0.448517
    51  C    0.716120
    52  O   -0.693509
    53  O   -0.704069
    54  H    0.432288
    55  C   -0.340621
    56  H    0.143664
    57  H    0.150674
    58  C   -0.081406
    59  H    0.131633
    60  H    0.155998
    61  C   -0.666035
    62  H    0.268999
    63  H    0.200208
    64  H    0.222590
    65  C   -0.285325
    66  H    0.142230
    67  H    0.140338
    68  C   -0.474684
    69  H    0.148092
    70  H    0.149496
    71  H    0.148236
    72  C   -0.333920
    73  H    0.184576
    74  H    0.159934
    75  C   -0.338398
    76  H    0.204647
    77  H    0.165131
 Sum of Mulliken charges =  -0.00000
 Mulliken charges with hydrogens summed into heavy atoms:
               1
     1  C    0.009600
     2  C    0.022263
     3  C    0.020830
     4  C    0.146929
     5  C    0.239103
     6  C    0.047124
    17  N   -0.437458
    18  C    0.281521
    19  C    0.322181
    20  C   -0.016483
    22  C   -0.010392
    24  C    0.449632
    27  N   -0.518514
    28  C    0.222793
    31  C    0.220010
    34  N   -0.359762
    35  S    1.238972
    36  O   -0.603201
    37  O   -0.591460
    38  C    0.050821
    39  C    0.036833
    40  C   -0.050567
    41  C   -0.016127
    42  C   -0.005680
    43  C   -0.050992
    49  O   -0.594863
    51  C    0.716120
    52  O   -0.693509
    53  O   -0.271781
    55  C   -0.046283
    58  C    0.206225
    61  C    0.025762
    65  C   -0.002757
    68  C   -0.028861
    72  C    0.010590
    75  C    0.031379
 Electronic spatial extent (au):  <R**2>=          14617.8013
 Charge=             -0.0000 electrons
 Dipole moment (field-independent basis, Debye):
    X=             -3.5971    Y=             -1.6236    Z=             -5.7201  Tot=              6.9495
 Quadrupole moment (field-independent basis, Debye-Ang):
   XX=           -208.6267   YY=           -222.2763   ZZ=           -218.4226
   XY=            -13.3205   XZ=             -4.0706   YZ=             10.7466
 Traceless Quadrupole moment (field-independent basis, Debye-Ang):
   XX=              7.8152   YY=             -5.8344   ZZ=             -1.9807
   XY=            -13.3205   XZ=             -4.0706   YZ=             10.7466
 Octapole moment (field-independent basis, Debye-Ang**2):
  XXX=              3.1608  YYY=            -52.3634  ZZZ=             17.8931  XYY=              4.9649
  XXY=            -24.7080  XXZ=            -41.6432  XZZ=            -23.9416  YZZ=             15.8693
  YYZ=             18.0450  XYZ=            -17.7840
 Hexadecapole moment (field-independent basis, Debye-Ang**3):
 XXXX=         -10046.3838 YYYY=          -5501.5970 ZZZZ=          -3634.2984 XXXY=           -206.7295
 XXXZ=             -2.3790 YYYX=           -106.9186 YYYZ=             42.8543 ZZZX=           -108.5607
 ZZZY=              0.8691 XXYY=          -2607.0413 XXZZ=          -2373.6864 YYZZ=          -1629.8465
 XXYZ=             46.6449 YYXZ=             48.7557 ZZXY=            -55.0601
 N-N= 4.957291629189D+03 E-N=-1.456675678479D+04  KE= 1.976413439190D+03
 No NMR shielding tensors so no spin-rotation constants.
 Leave Link  601 at Thu Feb  7 10:25:09 2019, MaxMem=   104857600 cpu:              18.7 elap:               0.9
 (Enter /home/xinyan/g16/l701.exe)
 ... and contract with generalized density number  0.
 Compute integral first derivatives.
 R6Disp: Adding Grimme-D3 dispersion energy 1st derivatives to the gradient.
 Leave Link  701 at Thu Feb  7 10:25:10 2019, MaxMem=   104857600 cpu:              30.1 elap:               1.3
 (Enter /home/xinyan/g16/l702.exe)
 L702 exits ... SP integral derivatives will be done elsewhere.
 Leave Link  702 at Thu Feb  7 10:25:10 2019, MaxMem=   104857600 cpu:               1.2 elap:               0.1
 (Enter /home/xinyan/g16/l703.exe)
 Integral derivatives from FoFJK, PRISM(SPDF).
 Compute integral first derivatives, UseDBF=F ICtDFT=           0.
 Calling FoFJK, ICntrl=      2127 FMM=T ISym2X=0 I1Cent= 0 IOpClX= 0 NMat=1 NMatS=1 NMatT=0.
 FoFJK:  IHMeth= 1 ICntrl=    2127 DoSepK=F KAlg= 0 I1Cent=           0 FoldK=F
 IRaf=         0 NMat=       1 IRICut=       1 DoRegI=T DoRafI=F ISym2E= 0 IDoP0=0 IntGTp=1.
 FoFCou: FMM=T IPFlag=           0 FMFlag=      100000 FMFlg1=        2001
         NFxFlg=           0 DoJE=F BraDBF=F KetDBF=F FulRan=T
         wScrn=  0.000000 ICntrl=      2127 IOpCl=  0 I1Cent=           0 NGrid=           0
         NMat0=    1 NMatS0=      1 NMatT0=    0 NMatD0=    1 NMtDS0=    0 NMtDT0=    0
 Symmetry not used in FoFCou.
 FMM levels:  10  Number of levels for PrismC:   9
 Leave Link  703 at Thu Feb  7 10:25:43 2019, MaxMem=   104857600 cpu:             783.8 elap:              32.7
 (Enter /home/xinyan/g16/l716.exe)
 Dipole        =-1.41521088D+00-6.38784019D-01-2.25046390D+00
 ***** Axes restored to original set *****
 -------------------------------------------------------------------
 Center     Atomic                   Forces (Hartrees/Bohr)
 Number     Number              X              Y              Z
 -------------------------------------------------------------------
      1        6          -0.000010415   -0.000010909   -0.000026909
      2        6          -0.000007441   -0.000001560   -0.000005461
      3        6          -0.000000981    0.000002127   -0.000014648
      4        6           0.000028750    0.000009419    0.000017249
      5        6          -0.000008550   -0.000026455   -0.000021275
      6        6           0.000001509   -0.000007533   -0.000008004
      7        1           0.000006848   -0.000009758   -0.000009208
      8        1           0.000004413   -0.000009360   -0.000016170
      9        1           0.000001325   -0.000012150   -0.000010812
     10        1          -0.000011017   -0.000010264   -0.000012549
     11        1          -0.000007797   -0.000007594   -0.000015004
     12        1          -0.000004528    0.000005116   -0.000017301
     13        1          -0.000028800   -0.000024086   -0.000033506
     14        1           0.000005016    0.000007980   -0.000020449
     15        1           0.000004484   -0.000005725   -0.000017435
     16        1          -0.000007565   -0.000016089   -0.000007105
     17        7          -0.000011843   -0.000000325    0.000011114
     18        6           0.000008588    0.000006857   -0.000009891
     19        6           0.000000864    0.000010016    0.000004033
     20        6           0.000002261    0.000009027   -0.000001018
     21        1           0.000013300    0.000013149   -0.000003178
     22        6           0.000007057    0.000011915    0.000025250
     23        1           0.000003013   -0.000002516   -0.000004044
     24        6          -0.000001649   -0.000033274   -0.000009426
     25        1           0.000009291    0.000002699    0.000003357
     26        1           0.000003019    0.000010937   -0.000005934
     27        7           0.000011702    0.000037580   -0.000001341
     28        6           0.000000704    0.000017614    0.000019098
     29        1           0.000004282   -0.000002991    0.000008231
     30        1          -0.000007290    0.000002298   -0.000002352
     31        6          -0.000006912    0.000007444    0.000016974
     32        1           0.000000683    0.000013327    0.000017182
     33        1           0.000008404    0.000020233    0.000017555
     34        7           0.000138001    0.000111606   -0.000064676
     35       16           0.000046764    0.000035840    0.000023035
     36        8          -0.000044513   -0.000020459    0.000008209
     37        8           0.000009673    0.000014515   -0.000034618
     38        6           0.000019624    0.000006539    0.000012541
     39        6          -0.000004073    0.000018833    0.000011433
     40        6          -0.000005016    0.000022807    0.000022807
     41        6          -0.000031408    0.000014159    0.000033754
     42        6          -0.000007798   -0.000015083    0.000041603
     43        6          -0.000017868   -0.000003938    0.000025278
     44        1          -0.000014466    0.000023028   -0.000014439
     45        1          -0.000013383    0.000028599    0.000009190
     46        1          -0.000027484    0.000019099    0.000033865
     47        1          -0.000024290   -0.000008734    0.000050596
     48        1          -0.000007093   -0.000025871    0.000043730
     49        8           0.000245461   -0.000072314   -0.000075853
     50        1          -0.000124785   -0.000134350   -0.000040064
     51        6          -0.000252203    0.000064651    0.000029172
     52        8          -0.000038964    0.000024765    0.000108758
     53        8          -0.000066277   -0.000061885   -0.000005029
     54        1           0.000056339    0.000055551    0.000015685
     55        6          -0.000005139    0.000006156   -0.000036365
     56        1           0.000014017    0.000005054    0.000010201
     57        1           0.000031709   -0.000032168   -0.000014972
     58        6           0.000027173    0.000002760    0.000031582
     59        1           0.000009587    0.000012997    0.000015189
     60        1          -0.000013736   -0.000008097    0.000012004
     61        6          -0.000007157    0.000001092   -0.000014413
     62        1           0.000016816    0.000033572    0.000008346
     63        1           0.000000776    0.000016116   -0.000019598
     64        1          -0.000008401    0.000017087   -0.000010106
     65        6          -0.000004262   -0.000010410   -0.000018718
     66        1          -0.000036241   -0.000021088   -0.000032062
     67        1           0.000007223   -0.000003419    0.000011491
     68        6           0.000027536   -0.000036642   -0.000034958
     69        1           0.000019643   -0.000038076   -0.000032461
     70        1           0.000055364   -0.000034927   -0.000021363
     71        1           0.000019545   -0.000060460   -0.000050426
     72        6          -0.000002413    0.000007766    0.000019860
     73        1          -0.000007416    0.000010639    0.000015039
     74        1           0.000001950    0.000017576    0.000014874
     75        6          -0.000010779   -0.000004209    0.000022040
     76        1           0.000018809    0.000004097    0.000002551
     77        1          -0.000001565    0.000010078    0.000020262
 -------------------------------------------------------------------
 Cartesian Forces:  Max     0.000252203 RMS     0.000036950
 Z-matrix is all fixed cartesians, so copy forces.
 Leave Link  716 at Thu Feb  7 10:25:43 2019, MaxMem=   104857600 cpu:               2.4 elap:               0.1
 (Enter /home/xinyan/g16/l103.exe)

 GradGradGradGradGradGradGradGradGradGradGradGradGradGradGradGradGradGrad
 Berny optimization.
 Search for a local minimum.
 Step number   1 out of a maximum of    2
 All quantities printed in internal units (Hartrees-Bohrs-Radians)
 Second derivative matrix not updated -- first step.
 ITU=  0
     Eigenvalues ---   -0.00000   0.00000   0.00000   0.00000   0.00000
     Eigenvalues ---    0.00000   0.00004   0.00013   0.00018   0.00023
     Eigenvalues ---    0.00038   0.00038   0.00088   0.00094   0.00114
     Eigenvalues ---    0.00137   0.00138   0.00207   0.00234   0.00289
     Eigenvalues ---    0.00404   0.00413   0.00458   0.00504   0.00588
     Eigenvalues ---    0.00601   0.00628   0.00691   0.00714   0.00838
     Eigenvalues ---    0.00967   0.01092   0.01150   0.01556   0.01637
     Eigenvalues ---    0.01668   0.01833   0.01905   0.02040   0.02131
     Eigenvalues ---    0.02297   0.02321   0.02476   0.02523   0.02862
     Eigenvalues ---    0.02935   0.03050   0.03087   0.03271   0.03524
     Eigenvalues ---    0.03537   0.03818   0.03886   0.04185   0.04291
     Eigenvalues ---    0.04400   0.04793   0.04816   0.04845   0.04935
     Eigenvalues ---    0.05026   0.05062   0.05114   0.05140   0.05162
     Eigenvalues ---    0.05169   0.05255   0.05336   0.05476   0.05584
     Eigenvalues ---    0.05656   0.05675   0.05734   0.05747   0.05816
     Eigenvalues ---    0.05862   0.06161   0.06284   0.06554   0.06702
     Eigenvalues ---    0.06833   0.06845   0.06942   0.06975   0.07106
     Eigenvalues ---    0.07141   0.07238   0.07272   0.07335   0.07378
     Eigenvalues ---    0.07620   0.07854   0.07903   0.07956   0.08125
     Eigenvalues ---    0.08529   0.08598   0.08999   0.09092   0.09681
     Eigenvalues ---    0.09739   0.10184   0.10542   0.11283   0.11546
     Eigenvalues ---    0.11763   0.12217   0.12698   0.12777   0.12856
     Eigenvalues ---    0.12941   0.12989   0.13352   0.13708   0.13848
     Eigenvalues ---    0.14042   0.14496   0.14637   0.15376   0.16046
     Eigenvalues ---    0.16066   0.16583   0.16669   0.16968   0.17066
     Eigenvalues ---    0.17301   0.17564   0.17848   0.18001   0.19579
     Eigenvalues ---    0.19710   0.20318   0.20709   0.21460   0.21645
     Eigenvalues ---    0.23292   0.23557   0.24191   0.24815   0.26371
     Eigenvalues ---    0.27463   0.28409   0.29543   0.30059   0.31171
     Eigenvalues ---    0.31480   0.32388   0.33703   0.34685   0.35924
     Eigenvalues ---    0.36331   0.39390   0.40259   0.40738   0.43365
     Eigenvalues ---    0.43688   0.44480   0.48001   0.49327   0.50234
     Eigenvalues ---    0.53020   0.56690   0.56903   0.59111   0.64284
     Eigenvalues ---    0.65230   0.65534   0.67032   0.68160   0.68849
     Eigenvalues ---    0.70455   0.77115   0.77898   0.78645   0.81789
     Eigenvalues ---    0.82846   0.83357   0.83949   0.86274   0.87491
     Eigenvalues ---    0.88459   0.88723   0.90692   0.91372   0.92342
     Eigenvalues ---    0.94456   0.94842   0.95001   0.95850   0.96555
     Eigenvalues ---    0.98043   0.98129   0.99719   1.00360   1.00501
     Eigenvalues ---    1.00955   1.04136   1.04389   1.04792   1.06188
     Eigenvalues ---    1.06474   1.06799   1.07044   1.08810   1.09371
     Eigenvalues ---    1.14240   1.15350   1.16032   1.18002   1.19688
     Eigenvalues ---    1.21488   1.23792   1.26962   1.28597   1.37023
     Eigenvalues ---    1.47411   1.53347   1.58356   1.59012   1.59596
     Eigenvalues ---    1.67507   1.70074   1.73129   1.84269   2.36854
 Eigenvalue     1 is  -5.55D-16 should be greater than     0.000000 Eigenvector:
                          Y71       Y57       Y68       Y70       Y69
   1                    0.13432   0.13432   0.13432   0.13432   0.13432
                          Y56       Y55       Y66       Y65       Y53
   1                    0.13432   0.13432   0.13432   0.13432   0.13432
 Eigenvalue     2 is   2.84D-08 Eigenvector:
                          Y46       Y47       X54       Y41       Y42
   1                    0.26414   0.24970  -0.22752   0.21920   0.21108
                          X53       Y45       Y40       X52       X51
   1                   -0.20131   0.17497   0.16910  -0.16218  -0.15346
 Eigenvalue     3 is   6.10D-08 Eigenvector:
                          X46       Z47       X45       X41       Z46
   1                    0.20667  -0.19710   0.19553   0.16864  -0.16459
                          X40       Z42       Z71       Z48       Z41
   1                    0.16219  -0.16053   0.15736  -0.14589  -0.14243
 Eigenvalue     4 is   1.56D-07 Eigenvector:
                          Z54       Z53       Z77       Z76       Z52
   1                    0.20340   0.19053  -0.18079  -0.17363   0.17243
                          Z57       Z51       Z75       Y64       Z33
   1                    0.16657   0.15632  -0.15535   0.14770  -0.14710
 Eigenvalue     5 is   2.43D-07 Eigenvector:
                          Y71       Y69       Y68       X70       Z71
   1                    0.18771   0.18265   0.15490  -0.15436   0.14742
                          Y47       Y66       Z69       Z47       Y73
   1                   -0.14663   0.14386   0.14326  -0.14191  -0.13984
 Eigenvalue     6 is   3.05D-07 Eigenvector:
                          Z54       Y45       Y59       Y64       Z70
   1                    0.22374  -0.20909   0.19798  -0.19066  -0.17618
                          Z53       Z69       Y46       Y61       Y62
   1                    0.17184  -0.16486  -0.15577  -0.15370  -0.15249
 Eigenvalue     7 is   4.12D-05 Eigenvector:
                          X69       Z70       Z69       X45       X46
   1                    0.23797   0.23102   0.22948  -0.22836  -0.21665
                          X70       Y45       X68       Z68       Z54
   1                    0.21548  -0.19200   0.18970   0.18678  -0.17531
 Quadratic step=1.956D+00 exceeds max=3.000D-01 adjusted using Lamda=-6.133D-04.
 Angle between NR and scaled steps=  13.95 degrees.
 Angle between quadratic step and forces=  65.76 degrees.
 Linear search not attempted -- first point.
 B after Tr=    -0.000482    0.001100    0.000996
         Rot=    1.000000   -0.000129    0.000045   -0.000048 Ang=  -0.02 deg.
 Variable       Old X    -DE/DX   Delta X   Delta X   Delta X     New X
                                 (Linear)    (Quad)   (Total)
    X1       -9.42172  -0.00001   0.00000  -0.00454  -0.00498  -9.42671
    Y1        0.44414  -0.00001   0.00000  -0.01337  -0.01297   0.43117
    Z1       -0.79503  -0.00003   0.00000  -0.02175  -0.02149  -0.81652
    X2       -9.69987  -0.00001   0.00000   0.00034   0.00026  -9.69961
    Y2       -1.97100  -0.00000   0.00000  -0.01721  -0.01643  -1.98743
    Z2       -2.36499  -0.00001   0.00000  -0.01687  -0.01727  -2.38226
    X3       -7.14430  -0.00000   0.00000   0.00212   0.00222  -7.14208
    Y3       -2.78959   0.00000   0.00000  -0.01539  -0.01408  -2.80368
    Z3       -3.45848  -0.00001   0.00000  -0.01432  -0.01469  -3.47318
    X4       -5.28555   0.00003   0.00000   0.00161   0.00156  -5.28399
    Y4       -3.21244   0.00001   0.00000  -0.00757  -0.00664  -3.21908
    Z4       -1.29609   0.00002   0.00000  -0.01239  -0.01270  -1.30879
    X5       -4.95208  -0.00001   0.00000  -0.00251  -0.00294  -4.95503
    Y5       -0.76657  -0.00003   0.00000  -0.00298  -0.00242  -0.76899
    Z5        0.27333  -0.00002   0.00000  -0.01949  -0.01914   0.25419
    X6       -7.49847   0.00000   0.00000  -0.00362  -0.00423  -7.50270
    Y6        0.10354  -0.00001   0.00000  -0.00463  -0.00459   0.09895
    Z6        1.33951  -0.00001   0.00000  -0.02104  -0.02069   1.31882
    X7       -7.32341   0.00001   0.00000   0.00543   0.00580  -7.31761
    Y7       -4.51214  -0.00001   0.00000  -0.01819  -0.01660  -4.52874
    Z7       -4.59154  -0.00001   0.00000  -0.01059  -0.01143  -4.60297
    X8      -10.45449   0.00000   0.00000   0.00255   0.00251 -10.45198
    Y8       -3.49272  -0.00001   0.00000  -0.01602  -0.01562  -3.50835
    Z8       -1.17356  -0.00002   0.00000  -0.01398  -0.01484  -1.18840
    X9      -11.05053   0.00000   0.00000   0.00034   0.00037 -11.05016
    Y9       -1.68256  -0.00001   0.00000  -0.02276  -0.02171  -1.70426
    Z9       -3.90446  -0.00001   0.00000  -0.01790  -0.01835  -3.92280
   X10       -8.79059  -0.00001   0.00000  -0.00783  -0.00831  -8.79890
   Y10        1.98843  -0.00001   0.00000  -0.01467  -0.01389   1.97454
   Z10       -2.03072  -0.00001   0.00000  -0.02503  -0.02432  -2.05504
   X11      -11.25407  -0.00001   0.00000  -0.00566  -0.00624 -11.26031
   Y11        1.00084  -0.00001   0.00000  -0.01544  -0.01542   0.98542
   Z11       -0.01274  -0.00002   0.00000  -0.02288  -0.02265  -0.03539
   X12       -6.01077  -0.00000   0.00000   0.00286   0.00284  -6.00793
   Y12       -4.69863   0.00001   0.00000  -0.00534  -0.00480  -4.70344
   Z12       -0.05255  -0.00002   0.00000  -0.00904  -0.00981  -0.06236
   X13       -4.29291  -0.00003   0.00000  -0.00627  -0.00672  -4.29963
   Y13        0.69990  -0.00002   0.00000  -0.00590  -0.00494   0.69496
   Z13       -1.03735  -0.00003   0.00000  -0.02459  -0.02381  -1.06115
   X14       -8.18595   0.00001   0.00000  -0.00090  -0.00150  -8.18745
   Y14       -1.28556   0.00001   0.00000  -0.00230  -0.00268  -1.28825
   Z14        2.71136  -0.00002   0.00000  -0.01737  -0.01745   2.69391
   X15       -7.19385   0.00000   0.00000  -0.00634  -0.00721  -7.20106
   Y15        1.89368  -0.00001   0.00000  -0.00159  -0.00178   1.89189
   Z15        2.33521  -0.00002   0.00000  -0.02568  -0.02485   2.31036
   X16       -6.46077  -0.00001   0.00000   0.00011   0.00018  -6.46059
   Y16       -1.27710  -0.00002   0.00000  -0.01699  -0.01529  -1.29239
   Z16       -4.70459  -0.00001   0.00000  -0.01731  -0.01723  -4.72182
   X17       -2.75280  -0.00001   0.00000   0.00393   0.00403  -2.74877
   Y17       -4.06497  -0.00000   0.00000  -0.00512  -0.00374  -4.06871
   Z17       -2.10882   0.00001   0.00000  -0.00749  -0.00780  -2.11662
   X18       -1.45579   0.00001   0.00000   0.00622   0.00636  -1.44943
   Y18       -2.77518   0.00001   0.00000  -0.00365  -0.00168  -2.77685
   Z18       -3.91411  -0.00001   0.00000  -0.00487  -0.00472  -3.91884
   X19       -1.43865   0.00000   0.00000   0.00264   0.00275  -1.43590
   Y19       -5.59833   0.00001   0.00000  -0.00236  -0.00126  -5.59959
   Z19       -0.52138   0.00000   0.00000  -0.00375  -0.00433  -0.52571
   X20        1.10082   0.00000   0.00000   0.00705   0.00723   1.10805
   Y20       -2.92344   0.00001   0.00000   0.00050   0.00278  -2.92067
   Z20       -4.14364  -0.00000   0.00000   0.00150   0.00183  -4.14181
   X21       -2.57001   0.00001   0.00000   0.00742   0.00756  -2.56245
   Y21       -1.56963   0.00001   0.00000  -0.00528  -0.00309  -1.57272
   Z21       -5.13454  -0.00000   0.00000  -0.00759  -0.00723  -5.14177
   X22        1.12085   0.00001   0.00000   0.00319   0.00332   1.12418
   Y22       -5.82036   0.00001   0.00000   0.00161   0.00298  -5.81738
   Z22       -0.61365   0.00003   0.00000   0.00245   0.00204  -0.61161
   X23       -2.54845   0.00000   0.00000   0.00084   0.00091  -2.54753
   Y23       -6.56156  -0.00000   0.00000  -0.00332  -0.00270  -6.56427
   Z23        0.90705  -0.00000   0.00000  -0.00580  -0.00673   0.90032
   X24        2.53626  -0.00000   0.00000   0.00489   0.00503   2.54129
   Y24       -4.31678  -0.00003   0.00000   0.00333   0.00528  -4.31149
   Z24       -2.33408  -0.00001   0.00000   0.00542   0.00553  -2.32855
   X25        2.02380   0.00001   0.00000   0.00896   0.00916   2.03297
   Y25       -1.84488   0.00000   0.00000   0.00176   0.00451  -1.84037
   Z25       -5.61483   0.00000   0.00000   0.00362   0.00432  -5.61051
   X26        2.03520   0.00000   0.00000   0.00174   0.00186   2.03706
   Y26       -6.98660   0.00001   0.00000   0.00374   0.00483  -6.98177
   Z26        0.79172  -0.00001   0.00000   0.00512   0.00449   0.79621
   X27        5.04315   0.00001   0.00000   0.00455   0.00468   5.04783
   Y27       -4.23620   0.00004   0.00000   0.00772   0.00989  -4.22631
   Z27       -2.25968  -0.00000   0.00000   0.01209   0.01244  -2.24723
   X28        6.42586   0.00000   0.00000   0.00023   0.00025   6.42612
   Y28       -5.21614   0.00002   0.00000   0.00893   0.01066  -5.20547
   Z28       -0.05437   0.00002   0.00000   0.01531   0.01554  -0.03883
   X29        6.17867   0.00000   0.00000   0.00240   0.00261   6.18128
   Y29       -7.26131  -0.00000   0.00000   0.00854   0.01021  -7.25110
   Z29        0.11340   0.00001   0.00000   0.01413   0.01381   0.12721
   X30        5.69911  -0.00001   0.00000  -0.00531  -0.00554   5.69358
   Y30       -4.25092   0.00000   0.00000   0.00757   0.00879  -4.24213
   Z30        1.63537  -0.00000   0.00000   0.01367   0.01408   1.64945
   X31        6.48877  -0.00001   0.00000   0.00474   0.00479   6.49356
   Y31       -2.23022   0.00001   0.00000   0.01058   0.01322  -2.21700
   Z31       -3.53872   0.00002   0.00000   0.01682   0.01783  -3.52089
   X32        7.00525   0.00000   0.00000   0.00953   0.00981   7.01506
   Y32       -2.84409   0.00001   0.00000   0.01270   0.01589  -2.82821
   Z32       -5.45059   0.00002   0.00000   0.01746   0.01836  -5.43223
   X33        5.34692   0.00001   0.00000   0.00290   0.00279   5.34971
   Y33       -0.51234   0.00002   0.00000   0.00935   0.01189  -0.50045
   Z33       -3.60365   0.00002   0.00000   0.01576   0.01711  -3.58654
   X34       -2.91813   0.00014   0.00000  -0.00039  -0.00097  -2.91910
   Y34       -0.98477   0.00011   0.00000   0.00591   0.00619  -0.97858
   Z34        2.10232  -0.00006   0.00000  -0.02080  -0.02032   2.08200
   X35       -2.94780   0.00005   0.00000   0.00418   0.00354  -2.94427
   Y35       -2.68158   0.00004   0.00000   0.01589   0.01550  -2.66608
   Z35        4.67560   0.00002   0.00000  -0.01408  -0.01404   4.66156
   X36       -5.26056  -0.00004   0.00000   0.00516   0.00467  -5.25590
   Y36       -4.20020  -0.00002   0.00000   0.01396   0.01336  -4.18684
   Z36        4.62046   0.00001   0.00000  -0.00513  -0.00570   4.61476
   X37       -0.52805   0.00001   0.00000   0.00550   0.00495  -0.52309
   Y37       -3.99552   0.00001   0.00000   0.01857   0.01834  -3.97718
   Z37        4.92485  -0.00003   0.00000  -0.01267  -0.01275   4.91211
   X38       -1.29017   0.00002   0.00000  -0.00283  -0.00378  -1.29395
   Y38        4.60630   0.00001   0.00000   0.01013   0.01103   4.61733
   Z38        0.27382   0.00001   0.00000   0.02595   0.02803   0.30185
   X39       -0.33854  -0.00000   0.00000  -0.00899  -0.00964  -0.34818
   Y39        3.52999   0.00002   0.00000   0.02209   0.02366   3.55365
   Z39       -1.95167   0.00001   0.00000   0.01747   0.01936  -1.93232
   X40       -1.70595  -0.00001   0.00000  -0.02147  -0.02193  -1.72788
   Y40        3.70721   0.00002   0.00000   0.02259   0.02461   3.73181
   Z40       -4.19769   0.00002   0.00000   0.02510   0.02691  -4.17078
   X41       -4.04815  -0.00003   0.00000  -0.02837  -0.02895  -4.07710
   Y41        4.91465   0.00001   0.00000   0.01012   0.01192   4.92657
   Z41       -4.26352   0.00003   0.00000   0.04134   0.04324  -4.22028
   X42       -5.01758  -0.00001   0.00000  -0.02262  -0.02349  -5.04107
   Y42        5.96432  -0.00002   0.00000  -0.00286  -0.00173   5.96259
   Z42       -2.05132   0.00004   0.00000   0.05000   0.05208  -1.99924
   X43       -3.63922  -0.00002   0.00000  -0.00985  -0.01091  -3.65013
   Y43        5.81147  -0.00000   0.00000  -0.00242  -0.00173   5.80974
   Z43        0.18962   0.00003   0.00000   0.04216   0.04433   0.23394
   X44        1.42875  -0.00001   0.00000  -0.00285  -0.00341   1.42534
   Y44        2.47764   0.00002   0.00000   0.03112   0.03284   2.51047
   Z44       -1.84277  -0.00001   0.00000   0.00450   0.00627  -1.83649
   X45       -0.92595  -0.00001   0.00000  -0.02591  -0.02614  -0.95208
   Y45        2.90050   0.00003   0.00000   0.03289   0.03542   2.93593
   Z45       -5.92121   0.00001   0.00000   0.01826   0.01993  -5.90129
   X46       -5.10251  -0.00003   0.00000  -0.03819  -0.03862  -5.14113
   Y46        5.04838   0.00002   0.00000   0.01055   0.01270   5.06109
   Z46       -6.02021   0.00003   0.00000   0.04726   0.04910  -5.97112
   X47       -6.84172  -0.00002   0.00000  -0.02807  -0.02904  -6.87075
   Y47        6.90655  -0.00001   0.00000  -0.01314  -0.01218   6.89437
   Z47       -2.07044   0.00005   0.00000   0.06284   0.06500  -2.00544
   X48       -4.40644  -0.00001   0.00000  -0.00548  -0.00678  -4.41322
   Y48        6.64012  -0.00003   0.00000  -0.01259  -0.01242   6.62770
   Z48        1.90830   0.00004   0.00000   0.04901   0.05132   1.95963
   X49        1.01758   0.00025   0.00000   0.00693   0.00592   1.02350
   Y49        2.12358  -0.00007   0.00000   0.00983   0.01011   2.13369
   Z49        3.52137  -0.00008   0.00000   0.01885   0.02049   3.54187
   X50       -1.23688  -0.00012   0.00000  -0.00140  -0.00205  -1.23893
   Y50       -0.02028  -0.00013   0.00000   0.00529   0.00580  -0.01448
   Z50        1.86624  -0.00004   0.00000  -0.02714  -0.02626   1.83997
   X51        3.59358  -0.00025   0.00000  -0.00691  -0.00772   3.58586
   Y51        0.97748   0.00006   0.00000  -0.00579  -0.00501   0.97247
   Z51        2.58843   0.00003   0.00000   0.00328   0.00485   2.59329
   X52        3.30972  -0.00004   0.00000  -0.02931  -0.02983   3.27989
   Y52       -0.04216   0.00002   0.00000  -0.00982  -0.00851  -0.05067
   Z52        0.39363   0.00011   0.00000   0.00822   0.00949   0.40312
   X53        4.04027  -0.00007   0.00000  -0.00211  -0.00293   4.03734
   Y53       -0.73382  -0.00006   0.00000  -0.00357  -0.00327  -0.73709
   Z53        4.58946  -0.00001   0.00000   0.00410   0.00527   4.59473
   X54        2.73300   0.00006   0.00000  -0.01052  -0.01121   2.72179
   Y54       -2.02027   0.00006   0.00000   0.00358   0.00379  -2.01648
   Z54        4.42364   0.00002   0.00000   0.01668   0.01740   4.44104
   X55        5.62999  -0.00001   0.00000   0.00816   0.00713   5.63712
   Y55        3.04607   0.00001   0.00000  -0.01789  -0.01698   3.02909
   Z55        2.85060  -0.00004   0.00000  -0.01712  -0.01483   2.83576
   X56        5.18724   0.00001   0.00000   0.03015   0.02886   5.21610
   Y56        4.28337   0.00001   0.00000  -0.01220  -0.01174   4.27162
   Z56        4.45476   0.00001   0.00000  -0.01535  -0.01277   4.44199
   X57        7.38101   0.00003   0.00000   0.00592   0.00494   7.38595
   Y57        2.05927  -0.00003   0.00000  -0.02889  -0.02794   2.03133
   Z57        3.36401  -0.00001   0.00000  -0.03027  -0.02808   3.33593
   X58        0.17401   0.00003   0.00000   0.01084   0.00968   0.18368
   Y58        4.51074   0.00000   0.00000   0.01089   0.01129   4.52203
   Z58        2.75609   0.00003   0.00000   0.01803   0.02022   2.77631
   X59       -1.09500   0.00001   0.00000   0.02112   0.01974  -1.07526
   Y59        5.21166   0.00001   0.00000   0.01760   0.01749   5.22915
   Z59        4.24775   0.00002   0.00000   0.02363   0.02588   4.27362
   X60        1.74630  -0.00001   0.00000   0.01414   0.01285   1.75915
   Y60        5.86614  -0.00001   0.00000   0.00618   0.00676   5.87291
   Z60        2.66546   0.00001   0.00000   0.00659   0.00926   2.67472
   X61       -3.06427  -0.00001   0.00000   0.00563   0.00454  -3.05973
   Y61       -0.44378   0.00000   0.00000   0.02492   0.02387  -0.41991
   Z61        7.18009  -0.00001   0.00000  -0.02199  -0.02138   7.15871
   X62       -1.39970   0.00002   0.00000   0.00514   0.00395  -1.39575
   Y62        0.75829   0.00003   0.00000   0.02466   0.02384   0.78213
   Z62        6.93059   0.00001   0.00000  -0.02701  -0.02594   6.90465
   X63       -4.81659   0.00000   0.00000   0.00519   0.00401  -4.81258
   Y63        0.63002   0.00002   0.00000   0.02382   0.02265   0.65266
   Z63        7.01595  -0.00002   0.00000  -0.02458  -0.02385   6.99209
   X64       -2.98930  -0.00001   0.00000   0.00696   0.00580  -2.98350
   Y64       -1.47947   0.00002   0.00000   0.03120   0.02970  -1.44977
   Z64        8.96152  -0.00001   0.00000  -0.01838  -0.01803   8.94348
   X65        6.09680  -0.00000   0.00000  -0.00100  -0.00196   6.09485
   Y65        4.57856  -0.00001   0.00000  -0.02543  -0.02385   4.55471
   Z65        0.45079  -0.00002   0.00000  -0.02374  -0.02101   0.42978
   X66        6.66368  -0.00004   0.00000  -0.03294  -0.03364   6.63004
   Y66        3.28455  -0.00002   0.00000  -0.03332  -0.03130   3.25325
   Z66       -1.06365  -0.00003   0.00000  -0.02898  -0.02654  -1.09019
   X67        4.34688   0.00001   0.00000   0.00179   0.00081   4.34769
   Y67        5.46314  -0.00000   0.00000  -0.00574  -0.00416   5.45898
   Z67       -0.21913   0.00001   0.00000  -0.00495  -0.00215  -0.22128
   X68        8.11067   0.00003   0.00000   0.02767   0.02648   8.13715
   Y68        6.60771  -0.00004   0.00000  -0.04915  -0.04748   6.56024
   Z68        0.84138  -0.00003   0.00000  -0.04811  -0.04468   0.79670
   X69        8.48368   0.00002   0.00000   0.01997   0.01884   8.50252
   Y69        7.66558  -0.00004   0.00000  -0.05418  -0.05201   7.61357
   Z69       -0.89622  -0.00003   0.00000  -0.05282  -0.04908  -0.94530
   X70        7.52128   0.00006   0.00000   0.06119   0.05974   7.58102
   Y70        7.96217  -0.00003   0.00000  -0.04173  -0.04048   7.92169
   Z70        2.29267  -0.00002   0.00000  -0.04145  -0.03772   2.25496
   X71        9.89449   0.00002   0.00000   0.02501   0.02385   9.91834
   Y71        5.76605  -0.00006   0.00000  -0.07047  -0.06878   5.69727
   Z71        1.47178  -0.00005   0.00000  -0.06898  -0.06561   1.40616
   X72        9.14792  -0.00000   0.00000   0.00060   0.00060   9.14851
   Y72       -4.44373   0.00001   0.00000   0.01227   0.01440  -4.42933
   Z72       -0.59118   0.00002   0.00000   0.02222   0.02290  -0.56828
   X73       10.27580  -0.00001   0.00000  -0.00375  -0.00392  10.27188
   Y73       -4.36508   0.00001   0.00000   0.01315   0.01494  -4.35014
   Z73        1.13412   0.00002   0.00000   0.02501   0.02581   1.15993
   X74       10.03392   0.00000   0.00000   0.00536   0.00560  10.03952
   Y74       -5.78184   0.00002   0.00000   0.01366   0.01621  -5.76563
   Z74       -1.89997   0.00001   0.00000   0.02404   0.02445  -1.87551
   X75        8.79569  -0.00001   0.00000   0.00077   0.00063   8.79632
   Y75       -1.85983  -0.00000   0.00000   0.01212   0.01453  -1.84530
   Z75       -1.83583   0.00002   0.00000   0.02193   0.02325  -1.81259
   X76        8.28957   0.00002   0.00000  -0.00334  -0.00374   8.28583
   Y76       -0.47706   0.00000   0.00000   0.01135   0.01335  -0.46371
   Z76       -0.38567   0.00000   0.00000   0.02116   0.02278  -0.36289
   X77       10.45105  -0.00000   0.00000   0.00240   0.00229  10.45334
   Y77       -1.20128   0.00001   0.00000   0.01386   0.01671  -1.18457
   Z77       -2.87766   0.00002   0.00000   0.02565   0.02728  -2.85037
         Item               Value     Threshold  Converged?
 Maximum Force            0.000252     0.000450     YES
 RMS     Force            0.000037     0.000300     YES
 Maximum Displacement     0.068779     0.001800     NO 
 RMS     Displacement     0.019717     0.001200     NO 
 Predicted change in Energy=-6.575654D-05
 GradGradGradGradGradGradGradGradGradGradGradGradGradGradGradGradGradGrad

 Leave Link  103 at Thu Feb  7 10:25:44 2019, MaxMem=   104857600 cpu:              28.5 elap:               1.3
 (Enter /home/xinyan/g16/l9999.exe)
 1\1\GINC-TSE4\Force\RM062X\6-31G(d)\C27H41N3O5S1\STEVETSE\07-Feb-2019\
 0\\#p M062X/6-31G* em=gd3 force int=ultrafine\\Title\\0,1\C,-4.98576,0
 .23503,-0.42071\C,-5.13295,-1.04301,-1.2515\C,-3.7806,-1.47619,-1.8301
 5\C,-2.79699,-1.69995,-0.68586\C,-2.62053,-0.40565,0.14464\C,-3.96802,
 0.05479,0.70884\H,-3.87538,-2.38772,-2.42974\H,-5.53228,-1.84827,-0.62
 102\H,-5.84769,-0.89037,-2.06615\H,-4.65178,1.05223,-1.07461\H,-5.9554
 ,0.52962,-0.00674\H,-3.18076,-2.48641,-0.02781\H,-2.27171,0.37037,-0.5
 4894\H,-4.33182,-0.68029,1.43479\H,-3.80682,1.00209,1.23574\H,-3.41889
 ,-0.67581,-2.48956\N,-1.45672,-2.15109,-1.11594\C,-0.77037,-1.46856,-2
 .07126\C,-0.7613,-2.96251,-0.2759\C,0.58253,-1.54702,-2.19272\H,-1.359
 99,-0.83061,-2.71708\C,0.59313,-3.08,-0.32473\H,-1.34858,-3.47223,0.47
 999\C,1.34213,-2.28434,-1.23514\H,1.07095,-0.97627,-2.97124\H,1.07698,
 -3.69715,0.41896\N,2.66872,-2.2417,-1.19577\C,3.40042,-2.76026,-0.0287
 7\H,3.26961,-3.84252,0.06001\H,3.01584,-2.24949,0.8654\C,3.43371,-1.18
 018,-1.87261\H,3.70702,-1.50503,-2.88433\H,2.82947,-0.27112,-1.90697\N
 ,-1.54421,-0.52112,1.1125\S,-1.55991,-1.41903,2.47422\O,-2.78377,-2.22
 265,2.44504\O,-0.27943,-2.11434,2.60612\C,-0.68273,2.43755,0.1449\C,-0
 .17915,1.86799,-1.03278\C,-0.90275,1.96177,-2.22132\C,-2.14219,2.60072
 ,-2.25616\C,-2.65519,3.15618,-1.08551\C,-1.92579,3.0753,0.10034\H,0.75
 606,1.31111,-0.97515\H,-0.48999,1.53488,-3.13337\H,-2.70013,2.67149,-3
 .18576\H,-3.62048,3.65479,-1.09563\H,-2.33179,3.5138,1.00983\O,0.53848
 ,1.12375,1.86343\H,-0.65453,-0.01073,0.98757\C,1.90164,0.51726,1.36974
 \O,1.75143,-0.02231,0.2083\O,2.13802,-0.38832,2.42864\H,1.44624,-1.069
 08,2.34089\C,2.97926,1.61191,1.50847\H,2.74497,2.26666,2.35736\H,3.905
 86,1.08972,1.78016\C,0.09208,2.38698,1.45846\H,-0.57945,2.75789,2.2478
 1\H,0.9241,3.10423,1.4105\C,-1.62154,-0.23484,3.79954\H,-0.74069,0.401
 27,3.66751\H,-2.54883,0.33339,3.71268\H,-1.58187,-0.7829,4.74223\C,3.2
 2629,2.42287,0.23855\H,3.52627,1.73811,-0.56286\H,2.30027,2.89097,-0.1
 1596\C,4.29198,3.49665,0.44524\H,4.48937,4.05645,-0.47426\H,3.98009,4.
 2134,1.21323\H,5.23594,3.05126,0.77883\C,4.84087,-2.35152,-0.31284\H,5
 .43772,-2.3099,0.60015\H,5.30972,-3.05962,-1.00542\C,4.65448,-0.98418,
 -0.97148\H,4.38665,-0.25245,-0.20409\H,5.53046,-0.63569,-1.52279\\Vers
 ion=ES64L-G16RevA.03\State=1-A\HF=-1991.355714\RMSD=5.125e-09\RMSF=3.6
 95e-05\Dipole=-1.3882481,-0.6095882,-2.2752196\Quadrupole=6.1057962,-4
 .9034853,-1.2023109,-9.7762835,-3.2630807,7.799944\PG=C01 [X(C27H41N3O
 5S1)]\\@


 EXPERIENCE IS A WONDERFUL THING.  IT ENABLES
 YOU TO RECOGNIZE A MISTAKE WHEN YOU MAKE IT AGAIN.
           - BACK OF A SUGAR PACKET
 Job cpu time:       0 days  1 hours 20 minutes 56.4 seconds.
 Elapsed time:       0 days  0 hours  3 minutes 23.8 seconds.
 File lengths (MBytes):  RWF=    216 Int=      0 D2E=      0 Chk=     25 Scr=      1
 Normal termination of Gaussian 16 at Thu Feb  7 10:25:45 2019.
