 Entering Gaussian System, Link 0=g16
 Input=C27N3H41SO5-201.gjf
 Output=C27N3H41SO5-201.log
 Initial command:
 /home/xinyan/g16/l1.exe "/local/home/tmp/Gau-15497.inp" -scrdir="/local/home/tmp/"
 Entering Link 1 = /home/xinyan/g16/l1.exe PID=     15498.
  
 Copyright (c) 1988,1990,1992,1993,1995,1998,2003,2009,2016,
            Gaussian, Inc.  All Rights Reserved.
  
 This is part of the Gaussian(R) 16 program.  It is based on
 the Gaussian(R) 09 system (copyright 2009, Gaussian, Inc.),
 the Gaussian(R) 03 system (copyright 2003, Gaussian, Inc.),
 the Gaussian(R) 98 system (copyright 1998, Gaussian, Inc.),
 the Gaussian(R) 94 system (copyright 1995, Gaussian, Inc.),
 the Gaussian 92(TM) system (copyright 1992, Gaussian, Inc.),
 the Gaussian 90(TM) system (copyright 1990, Gaussian, Inc.),
 the Gaussian 88(TM) system (copyright 1988, Gaussian, Inc.),
 the Gaussian 86(TM) system (copyright 1986, Carnegie Mellon
 University), and the Gaussian 82(TM) system (copyright 1983,
 Carnegie Mellon University). Gaussian is a federally registered
 trademark of Gaussian, Inc.
  
 This software contains proprietary and confidential information,
 including trade secrets, belonging to Gaussian, Inc.
  
 This software is provided under written license and may be
 used, copied, transmitted, or stored only in accord with that
 written license.
  
 The following legend is applicable only to US Government
 contracts under FAR:
  
                    RESTRICTED RIGHTS LEGEND
  
 Use, reproduction and disclosure by the US Government is
 subject to restrictions as set forth in subparagraphs (a)
 and (c) of the Commercial Computer Software - Restricted
 Rights clause in FAR 52.227-19.
  
 Gaussian, Inc.
 340 Quinnipiac St., Bldg. 40, Wallingford CT 06492
  
  
 ---------------------------------------------------------------
 Warning -- This program may not be used in any manner that
 competes with the business of Gaussian, Inc. or will provide
 assistance to any competitor of Gaussian, Inc.  The licensee
 of this program is prohibited from giving any competitor of
 Gaussian, Inc. access to this program.  By using this program,
 the user acknowledges that Gaussian, Inc. is engaged in the
 business of creating and licensing software in the field of
 computational chemistry and represents and warrants to the
 licensee that it is not a competitor of Gaussian, Inc. and that
 it will not use this program in any manner prohibited above.
 ---------------------------------------------------------------
  

 Cite this work as:
 Gaussian 16, Revision A.03,
 M. J. Frisch, G. W. Trucks, H. B. Schlegel, G. E. Scuseria, 
 M. A. Robb, J. R. Cheeseman, G. Scalmani, V. Barone, 
 G. A. Petersson, H. Nakatsuji, X. Li, M. Caricato, A. V. Marenich, 
 J. Bloino, B. G. Janesko, R. Gomperts, B. Mennucci, H. P. Hratchian, 
 J. V. Ortiz, A. F. Izmaylov, J. L. Sonnenberg, D. Williams-Young, 
 F. Ding, F. Lipparini, F. Egidi, J. Goings, B. Peng, A. Petrone, 
 T. Henderson, D. Ranasinghe, V. G. Zakrzewski, J. Gao, N. Rega, 
 G. Zheng, W. Liang, M. Hada, M. Ehara, K. Toyota, R. Fukuda, 
 J. Hasegawa, M. Ishida, T. Nakajima, Y. Honda, O. Kitao, H. Nakai, 
 T. Vreven, K. Throssell, J. A. Montgomery, Jr., J. E. Peralta, 
 F. Ogliaro, M. J. Bearpark, J. J. Heyd, E. N. Brothers, K. N. Kudin, 
 V. N. Staroverov, T. A. Keith, R. Kobayashi, J. Normand, 
 K. Raghavachari, A. P. Rendell, J. C. Burant, S. S. Iyengar, 
 J. Tomasi, M. Cossi, J. M. Millam, M. Klene, C. Adamo, R. Cammi, 
 J. W. Ochterski, R. L. Martin, K. Morokuma, O. Farkas, 
 J. B. Foresman, and D. J. Fox, Gaussian, Inc., Wallingford CT, 2016.
 
 ******************************************
 Gaussian 16:  ES64L-G16RevA.03 25-Dec-2016
                 7-Feb-2019 
 ******************************************
 %nproc=24
 Will use up to   24 processors via shared memory.
 ------------------------------------------
 #p M062X/6-31G* em=gd3 force int=ultrafine
 ------------------------------------------
 1/10=7,30=1,38=1/1,3;
 2/12=2,17=6,18=5,40=1/2;
 3/5=1,6=6,7=1,11=2,25=1,30=1,71=1,74=-55,75=-5,124=31/1,2,3;
 4//1;
 5/5=2,38=5/2;
 6/7=2,8=2,9=2,10=2,28=1/1;
 7/29=1/1,2,3,16;
 1/10=7,30=1/3;
 99//99;
 Leave Link    1 at Thu Feb  7 19:39:15 2019, MaxMem=           0 cpu:               2.5 elap:               0.1
 (Enter /home/xinyan/g16/l101.exe)
 -----
 Title
 -----
 Symbolic Z-matrix:
 Charge =  0 Multiplicity = 1
 C                    -4.9478    0.26248  -0.35016 
 C                    -5.11247  -1.00467  -1.1943 
 C                    -3.76651  -1.44185  -1.78471 
 C                    -2.77993  -1.68379  -0.64643 
 C                    -2.57451  -0.40023   0.20008 
 C                    -3.9223    0.06236   0.77061 
 H                    -3.87298  -2.34608  -2.39423 
 H                    -5.51554  -1.81402  -0.57138 
 H                    -5.82997  -0.83725  -2.00411 
 H                    -4.61145   1.08293  -0.99911 
 H                    -5.91332   0.56148   0.07107 
 H                    -3.16512  -2.4748    0.00473 
 H                    -2.23982   0.37642  -0.50194 
 H                    -4.28712  -0.67711   1.49265 
 H                    -3.75447   1.00491   1.30476 
 H                    -3.40451  -0.63575  -2.43721 
 N                    -1.44533  -2.14609  -1.09354 
 C                    -0.76992  -1.47383  -2.05758 
 C                    -0.74943  -2.96093  -0.26274 
 C                     0.58248  -1.5718   -2.20419 
 H                    -1.36115  -0.8251   -2.69084 
 C                     0.60498  -3.10236  -0.33989 
 H                    -1.32985  -3.45791   0.50696 
 C                     1.34534  -2.32743  -1.26881 
 H                     1.06284  -1.00637  -2.99181 
 H                     1.09119  -3.72283   0.39974 
 N                     2.68107  -2.29778  -1.25021 
 C                     3.42133  -2.82654  -0.0954 
 H                     3.29167  -3.90904  -0.01345 
 H                     3.0447   -2.34113   0.81597 
 C                     3.44579  -1.2404   -1.93415 
 H                     3.70726  -1.56377  -2.94865 
 H                     2.85119  -0.32446  -1.97488 
 N                    -1.46778  -0.53838   1.12955 
 S                    -1.52796  -1.44089   2.46557 
 O                    -2.70967  -2.31575   2.43352 
 O                    -0.21823  -2.09818   2.64125 
 C                    -0.76975   2.53756   0.09846 
 C                    -0.21605   1.8839   -1.01202 
 C                    -0.86716   1.92995  -2.24321 
 C                    -2.09347   2.58502  -2.37553 
 C                    -2.65869   3.21008  -1.26658 
 C                    -1.9925    3.18779  -0.04378 
 H                     0.70127   1.30972  -0.88802 
 H                    -0.41932   1.44793  -3.11075 
 H                    -2.60271   2.61314  -3.33421 
 H                    -3.61603   3.71562  -1.34807 
 H                    -2.42867   3.66799   0.82907 
 O                     0.24371   1.1728    1.78869 
 H                    -0.63875   0.29677   1.28687 
 C                     2.21177   0.31931   1.33161 
 O                     1.95765  -0.12706   0.22173 
 O                     2.12717  -0.42471   2.44562 
 H                     1.404    -1.08135   2.33242 
 C                     3.01985   1.57944   1.55131 
 H                     2.57742   2.16588   2.36339 
 H                     3.99482   1.22982   1.91926 
 C                    -0.10157   2.46066   1.45974 
 H                    -0.78896   2.90697   2.20386 
 H                     0.78431   3.13042   1.4516 
 C                    -1.64822  -0.27814   3.81361 
 H                    -0.8076    0.40893   3.67003 
 H                    -2.60167   0.24705   3.73543 
 H                    -1.57411  -0.82406   4.75518 
 C                     3.2218    2.41729   0.29132 
 H                     3.59387   1.77041  -0.5118 
 H                     2.26223   2.80927  -0.06406 
 C                     4.19589   3.56992   0.52735 
 H                     4.37229   4.14172  -0.38859 
 H                     3.81228   4.26192   1.28476 
 H                     5.16325   3.19683   0.88166 
 C                     4.86105  -2.41512  -0.38325 
 H                     5.46287  -2.37366   0.5266 
 H                     5.32516  -3.12487  -1.07609 
 C                     4.68074  -1.04979  -1.04912 
 H                     4.44573  -0.30207  -0.28643 
 H                     5.55337  -0.71735  -1.61477 
 
 ITRead=  0  0  0  0  0  0  0  0  0  0  0  0  0  0  0  0  0  0  0  0
 ITRead=  0  0  0  0  0  0  0  0  0  0  0  0  0  0  0  0  0  0  0  0
 ITRead=  0  0  0  0  0  0  0  0  0  0  0  0  0  0  0  0  0  0  0  0
 ITRead=  0  0  0  0  0  0  0  0  0  0  0  0  0  0  0  0  0
 MicOpt= -1 -1 -1 -1 -1 -1 -1 -1 -1 -1 -1 -1 -1 -1 -1 -1 -1 -1 -1 -1
 MicOpt= -1 -1 -1 -1 -1 -1 -1 -1 -1 -1 -1 -1 -1 -1 -1 -1 -1 -1 -1 -1
 MicOpt= -1 -1 -1 -1 -1 -1 -1 -1 -1 -1 -1 -1 -1 -1 -1 -1 -1 -1 -1 -1
 MicOpt= -1 -1 -1 -1 -1 -1 -1 -1 -1 -1 -1 -1 -1 -1 -1 -1 -1
 NAtoms=     77 NQM=       77 NQMF=       0 NMMI=      0 NMMIF=      0
                NMic=       0 NMicF=      0.
                    Isotopes and Nuclear Properties:
 (Nuclear quadrupole moments (NQMom) in fm**2, nuclear magnetic moments (NMagM)
  in nuclear magnetons)

  Atom         1           2           3           4           5           6           7           8           9          10
 IAtWgt=          12          12          12          12          12          12           1           1           1           1
 AtmWgt=  12.0000000  12.0000000  12.0000000  12.0000000  12.0000000  12.0000000   1.0078250   1.0078250   1.0078250   1.0078250
 NucSpn=           0           0           0           0           0           0           1           1           1           1
 AtZEff=  -0.0000000  -0.0000000  -0.0000000  -0.0000000  -0.0000000  -0.0000000  -0.0000000  -0.0000000  -0.0000000  -0.0000000
 NQMom=    0.0000000   0.0000000   0.0000000   0.0000000   0.0000000   0.0000000   0.0000000   0.0000000   0.0000000   0.0000000
 NMagM=    0.0000000   0.0000000   0.0000000   0.0000000   0.0000000   0.0000000   2.7928460   2.7928460   2.7928460   2.7928460
 AtZNuc=   6.0000000   6.0000000   6.0000000   6.0000000   6.0000000   6.0000000   1.0000000   1.0000000   1.0000000   1.0000000

  Atom        11          12          13          14          15          16          17          18          19          20
 IAtWgt=           1           1           1           1           1           1          14          12          12          12
 AtmWgt=   1.0078250   1.0078250   1.0078250   1.0078250   1.0078250   1.0078250  14.0030740  12.0000000  12.0000000  12.0000000
 NucSpn=           1           1           1           1           1           1           2           0           0           0
 AtZEff=  -0.0000000  -0.0000000  -0.0000000  -0.0000000  -0.0000000  -0.0000000  -0.0000000  -0.0000000  -0.0000000  -0.0000000
 NQMom=    0.0000000   0.0000000   0.0000000   0.0000000   0.0000000   0.0000000   2.0440000   0.0000000   0.0000000   0.0000000
 NMagM=    2.7928460   2.7928460   2.7928460   2.7928460   2.7928460   2.7928460   0.4037610   0.0000000   0.0000000   0.0000000
 AtZNuc=   1.0000000   1.0000000   1.0000000   1.0000000   1.0000000   1.0000000   7.0000000   6.0000000   6.0000000   6.0000000

  Atom        21          22          23          24          25          26          27          28          29          30
 IAtWgt=           1          12           1          12           1           1          14          12           1           1
 AtmWgt=   1.0078250  12.0000000   1.0078250  12.0000000   1.0078250   1.0078250  14.0030740  12.0000000   1.0078250   1.0078250
 NucSpn=           1           0           1           0           1           1           2           0           1           1
 AtZEff=  -0.0000000  -0.0000000  -0.0000000  -0.0000000  -0.0000000  -0.0000000  -0.0000000  -0.0000000  -0.0000000  -0.0000000
 NQMom=    0.0000000   0.0000000   0.0000000   0.0000000   0.0000000   0.0000000   2.0440000   0.0000000   0.0000000   0.0000000
 NMagM=    2.7928460   0.0000000   2.7928460   0.0000000   2.7928460   2.7928460   0.4037610   0.0000000   2.7928460   2.7928460
 AtZNuc=   1.0000000   6.0000000   1.0000000   6.0000000   1.0000000   1.0000000   7.0000000   6.0000000   1.0000000   1.0000000

  Atom        31          32          33          34          35          36          37          38          39          40
 IAtWgt=          12           1           1          14          32          16          16          12          12          12
 AtmWgt=  12.0000000   1.0078250   1.0078250  14.0030740  31.9720718  15.9949146  15.9949146  12.0000000  12.0000000  12.0000000
 NucSpn=           0           1           1           2           0           0           0           0           0           0
 AtZEff=  -0.0000000  -0.0000000  -0.0000000  -0.0000000  -0.0000000  -0.0000000  -0.0000000  -0.0000000  -0.0000000  -0.0000000
 NQMom=    0.0000000   0.0000000   0.0000000   2.0440000   0.0000000   0.0000000   0.0000000   0.0000000   0.0000000   0.0000000
 NMagM=    0.0000000   2.7928460   2.7928460   0.4037610   0.0000000   0.0000000   0.0000000   0.0000000   0.0000000   0.0000000
 AtZNuc=   6.0000000   1.0000000   1.0000000   7.0000000  16.0000000   8.0000000   8.0000000   6.0000000   6.0000000   6.0000000

  Atom        41          42          43          44          45          46          47          48          49          50
 IAtWgt=          12          12          12           1           1           1           1           1          16           1
 AtmWgt=  12.0000000  12.0000000  12.0000000   1.0078250   1.0078250   1.0078250   1.0078250   1.0078250  15.9949146   1.0078250
 NucSpn=           0           0           0           1           1           1           1           1           0           1
 AtZEff=  -0.0000000  -0.0000000  -0.0000000  -0.0000000  -0.0000000  -0.0000000  -0.0000000  -0.0000000  -0.0000000  -0.0000000
 NQMom=    0.0000000   0.0000000   0.0000000   0.0000000   0.0000000   0.0000000   0.0000000   0.0000000   0.0000000   0.0000000
 NMagM=    0.0000000   0.0000000   0.0000000   2.7928460   2.7928460   2.7928460   2.7928460   2.7928460   0.0000000   2.7928460
 AtZNuc=   6.0000000   6.0000000   6.0000000   1.0000000   1.0000000   1.0000000   1.0000000   1.0000000   8.0000000   1.0000000

  Atom        51          52          53          54          55          56          57          58          59          60
 IAtWgt=          12          16          16           1          12           1           1          12           1           1
 AtmWgt=  12.0000000  15.9949146  15.9949146   1.0078250  12.0000000   1.0078250   1.0078250  12.0000000   1.0078250   1.0078250
 NucSpn=           0           0           0           1           0           1           1           0           1           1
 AtZEff=  -0.0000000  -0.0000000  -0.0000000  -0.0000000  -0.0000000  -0.0000000  -0.0000000  -0.0000000  -0.0000000  -0.0000000
 NQMom=    0.0000000   0.0000000   0.0000000   0.0000000   0.0000000   0.0000000   0.0000000   0.0000000   0.0000000   0.0000000
 NMagM=    0.0000000   0.0000000   0.0000000   2.7928460   0.0000000   2.7928460   2.7928460   0.0000000   2.7928460   2.7928460
 AtZNuc=   6.0000000   8.0000000   8.0000000   1.0000000   6.0000000   1.0000000   1.0000000   6.0000000   1.0000000   1.0000000

  Atom        61          62          63          64          65          66          67          68          69          70
 IAtWgt=          12           1           1           1          12           1           1          12           1           1
 AtmWgt=  12.0000000   1.0078250   1.0078250   1.0078250  12.0000000   1.0078250   1.0078250  12.0000000   1.0078250   1.0078250
 NucSpn=           0           1           1           1           0           1           1           0           1           1
 AtZEff=  -0.0000000  -0.0000000  -0.0000000  -0.0000000  -0.0000000  -0.0000000  -0.0000000  -0.0000000  -0.0000000  -0.0000000
 NQMom=    0.0000000   0.0000000   0.0000000   0.0000000   0.0000000   0.0000000   0.0000000   0.0000000   0.0000000   0.0000000
 NMagM=    0.0000000   2.7928460   2.7928460   2.7928460   0.0000000   2.7928460   2.7928460   0.0000000   2.7928460   2.7928460
 AtZNuc=   6.0000000   1.0000000   1.0000000   1.0000000   6.0000000   1.0000000   1.0000000   6.0000000   1.0000000   1.0000000

  Atom        71          72          73          74          75          76          77
 IAtWgt=           1          12           1           1          12           1           1
 AtmWgt=   1.0078250  12.0000000   1.0078250   1.0078250  12.0000000   1.0078250   1.0078250
 NucSpn=           1           0           1           1           0           1           1
 AtZEff=  -0.0000000  -0.0000000  -0.0000000  -0.0000000  -0.0000000  -0.0000000  -0.0000000
 NQMom=    0.0000000   0.0000000   0.0000000   0.0000000   0.0000000   0.0000000   0.0000000
 NMagM=    2.7928460   0.0000000   2.7928460   2.7928460   0.0000000   2.7928460   2.7928460
 AtZNuc=   1.0000000   6.0000000   1.0000000   1.0000000   6.0000000   1.0000000   1.0000000
 Leave Link  101 at Thu Feb  7 19:39:16 2019, MaxMem=   104857600 cpu:               5.8 elap:               0.3
 (Enter /home/xinyan/g16/l103.exe)

 GradGradGradGradGradGradGradGradGradGradGradGradGradGradGradGradGradGrad
 Berny optimization.
 Initialization pass.
 Trust Radius=3.00D-01 FncErr=1.00D-07 GrdErr=1.00D-07 EigMax=2.50D+02 EigMin=1.00D-04
 Number of steps in this run=      2 maximum allowed number of steps=      2.
 GradGradGradGradGradGradGradGradGradGradGradGradGradGradGradGradGradGrad

 Leave Link  103 at Thu Feb  7 19:39:16 2019, MaxMem=   104857600 cpu:               1.6 elap:               0.1
 (Enter /home/xinyan/g16/l202.exe)
 Stoichiometry    C27H41N3O5S
 Framework group  C1[X(C27H41N3O5S)]
 Deg. of freedom   225
 Full point group                 C1      NOp   1
 Largest Abelian subgroup         C1      NOp   1
 Largest concise Abelian subgroup C1      NOp   1
                         Standard orientation:                         
 ---------------------------------------------------------------------
 Center     Atomic      Atomic             Coordinates (Angstroms)
 Number     Number       Type             X           Y           Z
 ---------------------------------------------------------------------
      1          6           0       -4.844652    0.402824   -0.509536
      2          6           0       -4.983637   -0.869493   -1.350518
      3          6           0       -3.629041   -1.280992   -1.939632
      4          6           0       -2.638019   -1.500188   -0.800605
      5          6           0       -2.458622   -0.210639    0.042713
      6          6           0       -3.815555    0.226178    0.611883
      7          1           0       -3.717184   -2.188705   -2.546898
      8          1           0       -5.370471   -1.685223   -0.725628
      9          1           0       -5.704200   -0.718567   -2.160850
     10          1           0       -4.524743    1.228244   -1.160493
     11          1           0       -5.816073    0.683399   -0.089198
     12          1           0       -3.007350   -2.297151   -0.147519
     13          1           0       -2.139481    0.570824   -0.661205
     14          1           0       -4.165571   -0.518669    1.335722
     15          1           0       -3.666820    1.173248    1.143691
     16          1           0       -3.283198   -0.469412   -2.594100
     17          7           0       -1.294303   -1.936671   -1.246358
     18          6           0       -0.632360   -1.253381   -2.211983
     19          6           0       -0.582319   -2.735266   -0.413415
     20          6           0        0.721765   -1.324498   -2.358149
     21          1           0       -1.236393   -0.618261   -2.846955
     22          6           0        0.774676   -2.849620   -0.490011
     23          1           0       -1.152778   -3.241890    0.357445
     24          6           0        1.499484   -2.062286   -1.420764
     25          1           0        1.190811   -0.751496   -3.147114
     26          1           0        1.273121   -3.458331    0.251244
     27          7           0        2.834344   -2.005731   -1.402043
     28          6           0        3.584861   -2.516601   -0.245802
     29          1           0        3.476982   -3.601281   -0.161156
     30          1           0        3.198366   -2.036583    0.664292
     31          6           0        3.577778   -0.934902   -2.088522
     32          1           0        3.845898   -1.255488   -3.102169
     33          1           0        2.964885   -0.031211   -2.131637
     34          7           0       -1.349520   -0.324174    0.972688
     35         16           0       -1.391799   -1.224361    2.310959
     36          8           0       -2.555669   -2.122889    2.280931
     37          8           0       -0.069150   -1.854734    2.488479
     38          6           0       -0.713291    2.762590   -0.066013
     39          6           0       -0.146338    2.117419   -1.174769
     40          6           0       -0.798000    2.147279   -2.406166
     41          6           0       -2.037211    2.777219   -2.540308
     42          6           0       -2.615106    3.393561   -1.433013
     43          6           0       -1.948843    3.387738   -0.210063
     44          1           0        0.782320    1.562117   -1.049195
     45          1           0       -0.340386    1.672192   -3.272428
     46          1           0       -2.546725    2.792690   -3.499130
     47          1           0       -3.582404    3.879539   -1.515911
     48          1           0       -2.394754    3.861254    0.661516
     49          8           0        0.327079    1.422728    1.627783
     50          1           0       -0.537485    0.527873    1.128034
     51          6           0        2.311996    0.607851    1.173134
     52          8           0        2.067123    0.153681    0.064340
     53          8           0        2.242158   -0.134927    2.288995
     54          1           0        1.532363   -0.806260    2.177337
     55          6           0        3.094526    1.884525    1.389790
     56          1           0        2.640231    2.463980    2.200332
     57          1           0        4.076258    1.555507    1.758759
     58          6           0       -0.043967    2.702555    1.295553
     59          1           0       -0.740341    3.136813    2.038450
     60          1           0        0.828265    3.389974    1.285862
     61          6           0       -1.535685   -0.060892    3.656060
     62          1           0       -0.709025    0.642584    3.510880
     63          1           0       -2.499490    0.444819    3.576423
     64          1           0       -1.450796   -0.602850    4.599008
     65          6           0        3.279832    2.723107    0.127732
     66          1           0        3.664995    2.081831   -0.673708
     67          1           0        2.312643    3.094817   -0.228771
     68          6           0        4.230497    3.895683    0.361012
     69          1           0        4.395542    4.468619   -0.556334
     70          1           0        3.832899    4.581723    1.116627
     71          1           0        5.205096    3.543013    0.716398
     72          6           0        5.016072   -2.077031   -0.534473
     73          1           0        5.616758   -2.021196    0.375358
     74          1           0        5.494499   -2.779037   -1.225462
     75          6           0        4.808470   -0.717276   -1.203792
     76          1           0        4.558320    0.027475   -0.443015
     77          1           0        5.674349   -0.368771   -1.770147
 ---------------------------------------------------------------------
 Rotational constants (GHZ):           0.1481815           0.0982555           0.0884550
 Leave Link  202 at Thu Feb  7 19:39:16 2019, MaxMem=   104857600 cpu:               2.4 elap:               0.1
 (Enter /home/xinyan/g16/l301.exe)
 Standard basis: 6-31G(d) (6D, 7F)
 Ernie: Thresh=  0.10000D-02 Tol=  0.10000D-05 Strict=F.
 There are   626 symmetry adapted cartesian basis functions of A   symmetry.
 There are   626 symmetry adapted basis functions of A   symmetry.
   626 basis functions,  1196 primitive gaussians,   626 cartesian basis functions
   140 alpha electrons      140 beta electrons
       nuclear repulsion energy      4934.5155909839 Hartrees.
 IExCor= 4336 DFT=T Ex+Corr=M062X ExCW=0 ScaHFX=  0.540000
 ScaDFX=  1.000000  1.000000  1.000000  1.000000 ScalE2=  1.000000  1.000000
 IRadAn=      5 IRanWt=     -1 IRanGd=            0 ICorTp=0 IEmpDi=131
 NAtoms=   77 NActive=   77 NUniq=   77 SFac= 1.00D+00 NAtFMM=   60 NAOKFM=T Big=T
 Integral buffers will be    131072 words long.
 Raffenetti 2 integral format.
 Two-electron integral symmetry is turned on.
 R6Disp:  Grimme-D3 Dispersion energy=       -0.0107470004 Hartrees.
 Nuclear repulsion after empirical dispersion term =     4934.5048439836 Hartrees.
 Leave Link  301 at Thu Feb  7 19:39:16 2019, MaxMem=   104857600 cpu:               3.0 elap:               0.1
 (Enter /home/xinyan/g16/l302.exe)
 NPDir=0 NMtPBC=     1 NCelOv=     1 NCel=       1 NClECP=     1 NCelD=      1
         NCelK=      1 NCelE2=     1 NClLst=     1 CellRange=     0.0.
 One-electron integrals computed using PRISM.
 One-electron integral symmetry used in STVInt
 PrsmSu:  requested number of processors reduced to:  23 ShMem   1 Linda.
 NBasis=   626 RedAO= T EigKep=  4.35D-04  NBF=   626
 NBsUse=   626 1.00D-06 EigRej= -1.00D+00 NBFU=   626
 Precomputing XC quadrature grid using
 IXCGrd= 4 IRadAn=           5 IRanWt=          -1 IRanGd=           0 AccXCQ= 0.00D+00.
 Generated NRdTot=       0 NPtTot=           0 NUsed=           0 NTot=          32
 NSgBfM=   617   616   616   617   617 MxSgAt=    77 MxSgA2=    77.
 Leave Link  302 at Thu Feb  7 19:39:20 2019, MaxMem=   104857600 cpu:              88.4 elap:               3.9
 (Enter /home/xinyan/g16/l303.exe)
 DipDrv:  MaxL=1.
 Leave Link  303 at Thu Feb  7 19:39:20 2019, MaxMem=   104857600 cpu:               4.6 elap:               0.2
 (Enter /home/xinyan/g16/l401.exe)
 ExpMin= 1.17D-01 ExpMax= 2.19D+04 ExpMxC= 3.30D+03 IAcc=3 IRadAn=         5 AccDes= 0.00D+00
 Harris functional with IExCor= 1009 and IRadAn=       5 diagonalized for initial guess.
 HarFok:  IExCor= 1009 AccDes= 0.00D+00 IRadAn=         5 IDoV= 1 UseB2=F ITyADJ=14
 ICtDFT=  3500011 ScaDFX=  1.000000  1.000000  1.000000  1.000000
 FoFCou: FMM=F IPFlag=           0 FMFlag=      100000 FMFlg1=        2001
         NFxFlg=           0 DoJE=T BraDBF=F KetDBF=T FulRan=T
         wScrn=  0.000000 ICntrl=       500 IOpCl=  0 I1Cent=   200000004 NGrid=           0
         NMat0=    1 NMatS0=      1 NMatT0=    0 NMatD0=    1 NMtDS0=    0 NMtDT0=    0
 Petite list used in FoFCou.
 Harris En= -1990.53471148829    
 JPrj=0 DoOrth=F DoCkMO=F.
 Leave Link  401 at Thu Feb  7 19:39:24 2019, MaxMem=   104857600 cpu:              97.7 elap:               4.1
 (Enter /home/xinyan/g16/l502.exe)
 Integral symmetry usage will be decided dynamically.
 Closed shell SCF:
 Using DIIS extrapolation, IDIIS=  1040.
 NGot=   104857600 LenX=   104051656 LenY=   103659154
 Requested convergence on RMS density matrix=1.00D-08 within 128 cycles.
 Requested convergence on MAX density matrix=1.00D-06.
 Requested convergence on             energy=1.00D-06.
 No special actions if energy rises.
 Fock matrices will be formed incrementally for  20 cycles.
 Integral accuracy reduced to 1.0D-05 until final iterations.

 Cycle   1  Pass 0  IDiag  1:
 FoFJK:  IHMeth= 1 ICntrl=       0 DoSepK=F KAlg= 0 I1Cent=           0 FoldK=F
 IRaf= 990000000 NMat=       1 IRICut=       1 DoRegI=T DoRafI=F ISym2E= 0 IDoP0=0 IntGTp=1.
 FoFCou: FMM=T IPFlag=           0 FMFlag=      100000 FMFlg1=        2001
         NFxFlg=           0 DoJE=F BraDBF=F KetDBF=F FulRan=T
         wScrn=  0.000000 ICntrl=         0 IOpCl=  0 I1Cent=           0 NGrid=           0
         NMat0=    1 NMatS0=      1 NMatT0=    0 NMatD0=    1 NMtDS0=    0 NMtDT0=    0
 Symmetry not used in FoFCou.
 FMM levels:  10  Number of levels for PrismC:   9
 E= -1990.30526498201    
 DIIS: error= 2.03D-02 at cycle   1 NSaved=   1.
 NSaved= 1 IEnMin= 1 EnMin= -1990.30526498201     IErMin= 1 ErrMin= 2.03D-02
 ErrMax= 2.03D-02  0.00D+00 EMaxC= 1.00D-01 BMatC= 1.24D+00 BMatP= 1.24D+00
 IDIUse=3 WtCom= 7.97D-01 WtEn= 2.03D-01
 Coeff-Com:  0.100D+01
 Coeff-En:   0.100D+01
 Coeff:      0.100D+01
 Gap=     0.384 Goal=   None    Shift=    0.000
 GapD=    0.384 DampG=1.000 DampE=0.500 DampFc=0.5000 IDamp=-1.
 Damping current iteration by 5.00D-01
 RMSDP=3.36D-03 MaxDP=3.36D-01              OVMax= 1.51D-01

 Cycle   2  Pass 0  IDiag  1:
 RMSU=  1.67D-03    CP:  9.88D-01
 E= -1990.82079186295     Delta-E=       -0.515526880936 Rises=F Damp=T
 DIIS: error= 6.94D-03 at cycle   2 NSaved=   2.
 NSaved= 2 IEnMin= 2 EnMin= -1990.82079186295     IErMin= 2 ErrMin= 6.94D-03
 ErrMax= 6.94D-03  0.00D+00 EMaxC= 1.00D-01 BMatC= 9.09D-02 BMatP= 1.24D+00
 IDIUse=3 WtCom= 9.31D-01 WtEn= 6.94D-02
 Coeff-Com: -0.330D-01 0.103D+01
 Coeff-En:   0.000D+00 0.100D+01
 Coeff:     -0.307D-01 0.103D+01
 Gap=     0.261 Goal=   None    Shift=    0.000
 RMSDP=8.19D-04 MaxDP=7.69D-02 DE=-5.16D-01 OVMax= 9.60D-02

 Cycle   3  Pass 0  IDiag  1:
 RMSU=  8.12D-04    CP:  9.81D-01  9.70D-01
 E= -1991.32572888173     Delta-E=       -0.504937018781 Rises=F Damp=F
 DIIS: error= 6.20D-03 at cycle   3 NSaved=   3.
 NSaved= 3 IEnMin= 3 EnMin= -1991.32572888173     IErMin= 3 ErrMin= 6.20D-03
 ErrMax= 6.20D-03  0.00D+00 EMaxC= 1.00D-01 BMatC= 4.35D-02 BMatP= 9.09D-02
 IDIUse=3 WtCom= 9.38D-01 WtEn= 6.20D-02
 Coeff-Com: -0.712D-01 0.424D+00 0.647D+00
 Coeff-En:   0.000D+00 0.000D+00 0.100D+01
 Coeff:     -0.668D-01 0.398D+00 0.669D+00
 Gap=     0.246 Goal=   None    Shift=    0.000
 RMSDP=4.58D-04 MaxDP=3.78D-02 DE=-5.05D-01 OVMax= 4.86D-02

 Cycle   4  Pass 0  IDiag  1:
 RMSU=  3.10D-04    CP:  9.84D-01  1.06D+00  6.31D-01
 E= -1991.35197380603     Delta-E=       -0.026244924307 Rises=F Damp=F
 DIIS: error= 3.02D-03 at cycle   4 NSaved=   4.
 NSaved= 4 IEnMin= 4 EnMin= -1991.35197380603     IErMin= 4 ErrMin= 3.02D-03
 ErrMax= 3.02D-03  0.00D+00 EMaxC= 1.00D-01 BMatC= 1.08D-02 BMatP= 4.35D-02
 IDIUse=3 WtCom= 9.70D-01 WtEn= 3.02D-02
 Coeff-Com: -0.274D-01 0.885D-01 0.362D+00 0.577D+00
 Coeff-En:   0.000D+00 0.000D+00 0.207D+00 0.793D+00
 Coeff:     -0.265D-01 0.858D-01 0.357D+00 0.584D+00
 Gap=     0.233 Goal=   None    Shift=    0.000
 RMSDP=1.89D-04 MaxDP=1.23D-02 DE=-2.62D-02 OVMax= 2.12D-02

 Cycle   5  Pass 0  IDiag  1:
 RMSU=  8.46D-05    CP:  9.83D-01  1.05D+00  7.47D-01  5.51D-01
 E= -1991.36086661247     Delta-E=       -0.008892806440 Rises=F Damp=F
 DIIS: error= 8.51D-04 at cycle   5 NSaved=   5.
 NSaved= 5 IEnMin= 5 EnMin= -1991.36086661247     IErMin= 5 ErrMin= 8.51D-04
 ErrMax= 8.51D-04  0.00D+00 EMaxC= 1.00D-01 BMatC= 5.66D-04 BMatP= 1.08D-02
 IDIUse=3 WtCom= 9.91D-01 WtEn= 8.51D-03
 Coeff-Com: -0.902D-02 0.210D-01 0.138D+00 0.288D+00 0.561D+00
 Coeff-En:   0.000D+00 0.000D+00 0.000D+00 0.000D+00 0.100D+01
 Coeff:     -0.894D-02 0.208D-01 0.137D+00 0.286D+00 0.565D+00
 Gap=     0.235 Goal=   None    Shift=    0.000
 RMSDP=5.03D-05 MaxDP=3.29D-03 DE=-8.89D-03 OVMax= 7.23D-03

 Cycle   6  Pass 0  IDiag  1:
 RMSU=  2.59D-05    CP:  9.83D-01  1.05D+00  7.48D-01  6.29D-01  5.79D-01
 E= -1991.36136123288     Delta-E=       -0.000494620411 Rises=F Damp=F
 DIIS: error= 2.59D-04 at cycle   6 NSaved=   6.
 NSaved= 6 IEnMin= 6 EnMin= -1991.36136123288     IErMin= 6 ErrMin= 2.59D-04
 ErrMax= 2.59D-04  0.00D+00 EMaxC= 1.00D-01 BMatC= 4.95D-05 BMatP= 5.66D-04
 IDIUse=3 WtCom= 9.97D-01 WtEn= 2.59D-03
 Coeff-Com: -0.165D-02 0.178D-02 0.309D-01 0.813D-01 0.281D+00 0.607D+00
 Coeff-En:   0.000D+00 0.000D+00 0.000D+00 0.000D+00 0.000D+00 0.100D+01
 Coeff:     -0.164D-02 0.177D-02 0.308D-01 0.811D-01 0.280D+00 0.608D+00
 Gap=     0.235 Goal=   None    Shift=    0.000
 RMSDP=1.39D-05 MaxDP=7.83D-04 DE=-4.95D-04 OVMax= 1.96D-03

 Cycle   7  Pass 0  IDiag  1:
 RMSU=  9.00D-06    CP:  9.83D-01  1.05D+00  7.51D-01  6.28D-01  6.57D-01
                    CP:  6.96D-01
 E= -1991.36140916666     Delta-E=       -0.000047933776 Rises=F Damp=F
 DIIS: error= 4.66D-05 at cycle   7 NSaved=   7.
 NSaved= 7 IEnMin= 7 EnMin= -1991.36140916666     IErMin= 7 ErrMin= 4.66D-05
 ErrMax= 4.66D-05  0.00D+00 EMaxC= 1.00D-01 BMatC= 3.54D-06 BMatP= 4.95D-05
 IDIUse=1 WtCom= 1.00D+00 WtEn= 0.00D+00
 Coeff-Com:  0.237D-03-0.142D-02-0.143D-02 0.515D-02 0.664D-01 0.260D+00
 Coeff-Com:  0.672D+00
 Coeff:      0.237D-03-0.142D-02-0.143D-02 0.515D-02 0.664D-01 0.260D+00
 Coeff:      0.672D+00
 Gap=     0.235 Goal=   None    Shift=    0.000
 RMSDP=4.47D-06 MaxDP=2.29D-04 DE=-4.79D-05 OVMax= 3.62D-04

 Initial convergence to 1.0D-05 achieved.  Increase integral accuracy.
 Cycle   8  Pass 1  IDiag  1:
 E= -1991.36163811752     Delta-E=       -0.000228950858 Rises=F Damp=F
 DIIS: error= 1.93D-04 at cycle   1 NSaved=   1.
 NSaved= 1 IEnMin= 1 EnMin= -1991.36163811752     IErMin= 1 ErrMin= 1.93D-04
 ErrMax= 1.93D-04  0.00D+00 EMaxC= 1.00D-01 BMatC= 1.31D-05 BMatP= 1.31D-05
 IDIUse=3 WtCom= 9.98D-01 WtEn= 1.93D-03
 Coeff-Com:  0.100D+01
 Coeff-En:   0.100D+01
 Coeff:      0.100D+01
 Gap=     0.235 Goal=   None    Shift=    0.000
 RMSDP=4.47D-06 MaxDP=2.29D-04 DE=-2.29D-04 OVMax= 5.46D-04

 Cycle   9  Pass 1  IDiag  1:
 RMSU=  7.33D-05    CP:  1.00D+00
 E= -1991.36165007490     Delta-E=       -0.000011957379 Rises=F Damp=F
 DIIS: error= 2.14D-05 at cycle   2 NSaved=   2.
 NSaved= 2 IEnMin= 2 EnMin= -1991.36165007490     IErMin= 2 ErrMin= 2.14D-05
 ErrMax= 2.14D-05  0.00D+00 EMaxC= 1.00D-01 BMatC= 7.17D-07 BMatP= 1.31D-05
 IDIUse=1 WtCom= 1.00D+00 WtEn= 0.00D+00
 Coeff-Com:  0.607D-01 0.939D+00
 Coeff:      0.607D-01 0.939D+00
 Gap=     0.235 Goal=   None    Shift=    0.000
 RMSDP=3.85D-06 MaxDP=2.16D-04 DE=-1.20D-05 OVMax= 3.32D-04

 Cycle  10  Pass 1  IDiag  1:
 RMSU=  3.22D-06    CP:  1.00D+00  1.03D+00
 E= -1991.36164974001     Delta-E=        0.000000334887 Rises=F Damp=F
 DIIS: error= 3.17D-05 at cycle   3 NSaved=   3.
 NSaved= 3 IEnMin= 2 EnMin= -1991.36165007490     IErMin= 2 ErrMin= 2.14D-05
 ErrMax= 3.17D-05  0.00D+00 EMaxC= 1.00D-01 BMatC= 1.13D-06 BMatP= 7.17D-07
 IDIUse=1 WtCom= 1.00D+00 WtEn= 0.00D+00
 Coeff-Com: -0.152D-01 0.563D+00 0.452D+00
 Coeff:     -0.152D-01 0.563D+00 0.452D+00
 Gap=     0.235 Goal=   None    Shift=    0.000
 RMSDP=1.77D-06 MaxDP=1.27D-04 DE= 3.35D-07 OVMax= 2.09D-04

 Cycle  11  Pass 1  IDiag  1:
 RMSU=  6.46D-07    CP:  1.00D+00  1.03D+00  4.96D-01
 E= -1991.36165072166     Delta-E=       -0.000000981646 Rises=F Damp=F
 DIIS: error= 3.92D-06 at cycle   4 NSaved=   4.
 NSaved= 4 IEnMin= 4 EnMin= -1991.36165072166     IErMin= 4 ErrMin= 3.92D-06
 ErrMax= 3.92D-06  0.00D+00 EMaxC= 1.00D-01 BMatC= 1.06D-08 BMatP= 7.17D-07
 IDIUse=1 WtCom= 1.00D+00 WtEn= 0.00D+00
 Coeff-Com: -0.807D-02 0.248D+00 0.213D+00 0.547D+00
 Coeff:     -0.807D-02 0.248D+00 0.213D+00 0.547D+00
 Gap=     0.235 Goal=   None    Shift=    0.000
 RMSDP=2.25D-07 MaxDP=1.25D-05 DE=-9.82D-07 OVMax= 2.62D-05

 Cycle  12  Pass 1  IDiag  1:
 RMSU=  2.09D-07    CP:  1.00D+00  1.03D+00  5.11D-01  9.00D-01
 E= -1991.36165073173     Delta-E=       -0.000000010076 Rises=F Damp=F
 DIIS: error= 1.12D-06 at cycle   5 NSaved=   5.
 NSaved= 5 IEnMin= 5 EnMin= -1991.36165073173     IErMin= 5 ErrMin= 1.12D-06
 ErrMax= 1.12D-06  0.00D+00 EMaxC= 1.00D-01 BMatC= 1.12D-09 BMatP= 1.06D-08
 IDIUse=1 WtCom= 1.00D+00 WtEn= 0.00D+00
 Coeff-Com: -0.853D-04-0.170D-01-0.597D-02 0.210D+00 0.813D+00
 Coeff:     -0.853D-04-0.170D-01-0.597D-02 0.210D+00 0.813D+00
 Gap=     0.235 Goal=   None    Shift=    0.000
 RMSDP=1.09D-07 MaxDP=6.75D-06 DE=-1.01D-08 OVMax= 1.39D-05

 Cycle  13  Pass 1  IDiag  1:
 RMSU=  8.09D-08    CP:  1.00D+00  1.03D+00  5.16D-01  1.00D+00  9.18D-01
 E= -1991.36165073300     Delta-E=       -0.000000001270 Rises=F Damp=F
 DIIS: error= 5.65D-07 at cycle   6 NSaved=   6.
 NSaved= 6 IEnMin= 6 EnMin= -1991.36165073300     IErMin= 6 ErrMin= 5.65D-07
 ErrMax= 5.65D-07  0.00D+00 EMaxC= 1.00D-01 BMatC= 3.05D-10 BMatP= 1.12D-09
 IDIUse=1 WtCom= 1.00D+00 WtEn= 0.00D+00
 Coeff-Com:  0.120D-02-0.473D-01-0.353D-01 0.315D-01 0.438D+00 0.612D+00
 Coeff:      0.120D-02-0.473D-01-0.353D-01 0.315D-01 0.438D+00 0.612D+00
 Gap=     0.235 Goal=   None    Shift=    0.000
 RMSDP=4.25D-08 MaxDP=2.97D-06 DE=-1.27D-09 OVMax= 5.96D-06

 Cycle  14  Pass 1  IDiag  1:
 RMSU=  3.24D-08    CP:  1.00D+00  1.03D+00  5.18D-01  1.03D+00  1.02D+00
                    CP:  9.29D-01
 E= -1991.36165073331     Delta-E=       -0.000000000308 Rises=F Damp=F
 DIIS: error= 1.41D-07 at cycle   7 NSaved=   7.
 NSaved= 7 IEnMin= 7 EnMin= -1991.36165073331     IErMin= 7 ErrMin= 1.41D-07
 ErrMax= 1.41D-07  0.00D+00 EMaxC= 1.00D-01 BMatC= 2.39D-11 BMatP= 3.05D-10
 IDIUse=1 WtCom= 1.00D+00 WtEn= 0.00D+00
 Coeff-Com:  0.493D-03-0.169D-01-0.132D-01-0.136D-01 0.764D-01 0.243D+00
 Coeff-Com:  0.724D+00
 Coeff:      0.493D-03-0.169D-01-0.132D-01-0.136D-01 0.764D-01 0.243D+00
 Coeff:      0.724D+00
 Gap=     0.235 Goal=   None    Shift=    0.000
 RMSDP=1.53D-08 MaxDP=1.25D-06 DE=-3.08D-10 OVMax= 2.25D-06

 Cycle  15  Pass 1  IDiag  1:
 RMSU=  1.01D-08    CP:  1.00D+00  1.03D+00  5.19D-01  1.04D+00  1.04D+00
                    CP:  1.04D+00  1.07D+00
 E= -1991.36165073338     Delta-E=       -0.000000000074 Rises=F Damp=F
 DIIS: error= 5.97D-08 at cycle   8 NSaved=   8.
 NSaved= 8 IEnMin= 8 EnMin= -1991.36165073338     IErMin= 8 ErrMin= 5.97D-08
 ErrMax= 5.97D-08  0.00D+00 EMaxC= 1.00D-01 BMatC= 4.02D-12 BMatP= 2.39D-11
 IDIUse=1 WtCom= 1.00D+00 WtEn= 0.00D+00
 Coeff-Com: -0.449D-04 0.276D-02 0.195D-02-0.129D-01-0.600D-01-0.236D-01
 Coeff-Com:  0.303D+00 0.789D+00
 Coeff:     -0.449D-04 0.276D-02 0.195D-02-0.129D-01-0.600D-01-0.236D-01
 Coeff:      0.303D+00 0.789D+00
 Gap=     0.235 Goal=   None    Shift=    0.000
 RMSDP=6.85D-09 MaxDP=6.57D-07 DE=-7.37D-11 OVMax= 1.26D-06

 SCF Done:  E(RM062X) =  -1991.36165073     A.U. after   15 cycles
            NFock= 15  Conv=0.69D-08     -V/T= 2.0075
 KE= 1.976471965391D+03 PE=-1.452139377237D+04 EE= 5.619055312257D+03
 Leave Link  502 at Thu Feb  7 19:42:00 2019, MaxMem=   104857600 cpu:            3734.5 elap:             155.8
 (Enter /home/xinyan/g16/l601.exe)
 Copying SCF densities to generalized density rwf, IOpCl= 0 IROHF=0.

 **********************************************************************

            Population analysis using the SCF density.

 **********************************************************************

 Orbital symmetries:
       Occupied  (A) (A) (A) (A) (A) (A) (A) (A) (A) (A) (A) (A)
                 (A) (A) (A) (A) (A) (A) (A) (A) (A) (A) (A) (A)
                 (A) (A) (A) (A) (A) (A) (A) (A) (A) (A) (A) (A)
                 (A) (A) (A) (A) (A) (A) (A) (A) (A) (A) (A) (A)
                 (A) (A) (A) (A) (A) (A) (A) (A) (A) (A) (A) (A)
                 (A) (A) (A) (A) (A) (A) (A) (A) (A) (A) (A) (A)
                 (A) (A) (A) (A) (A) (A) (A) (A) (A) (A) (A) (A)
                 (A) (A) (A) (A) (A) (A) (A) (A) (A) (A) (A) (A)
                 (A) (A) (A) (A) (A) (A) (A) (A) (A) (A) (A) (A)
                 (A) (A) (A) (A) (A) (A) (A) (A) (A) (A) (A) (A)
                 (A) (A) (A) (A) (A) (A) (A) (A) (A) (A) (A) (A)
                 (A) (A) (A) (A) (A) (A) (A) (A)
       Virtual   (A) (A) (A) (A) (A) (A) (A) (A) (A) (A) (A) (A)
                 (A) (A) (A) (A) (A) (A) (A) (A) (A) (A) (A) (A)
                 (A) (A) (A) (A) (A) (A) (A) (A) (A) (A) (A) (A)
                 (A) (A) (A) (A) (A) (A) (A) (A) (A) (A) (A) (A)
                 (A) (A) (A) (A) (A) (A) (A) (A) (A) (A) (A) (A)
                 (A) (A) (A) (A) (A) (A) (A) (A) (A) (A) (A) (A)
                 (A) (A) (A) (A) (A) (A) (A) (A) (A) (A) (A) (A)
                 (A) (A) (A) (A) (A) (A) (A) (A) (A) (A) (A) (A)
                 (A) (A) (A) (A) (A) (A) (A) (A) (A) (A) (A) (A)
                 (A) (A) (A) (A) (A) (A) (A) (A) (A) (A) (A) (A)
                 (A) (A) (A) (A) (A) (A) (A) (A) (A) (A) (A) (A)
                 (A) (A) (A) (A) (A) (A) (A) (A) (A) (A) (A) (A)
                 (A) (A) (A) (A) (A) (A) (A) (A) (A) (A) (A) (A)
                 (A) (A) (A) (A) (A) (A) (A) (A) (A) (A) (A) (A)
                 (A) (A) (A) (A) (A) (A) (A) (A) (A) (A) (A) (A)
                 (A) (A) (A) (A) (A) (A) (A) (A) (A) (A) (A) (A)
                 (A) (A) (A) (A) (A) (A) (A) (A) (A) (A) (A) (A)
                 (A) (A) (A) (A) (A) (A) (A) (A) (A) (A) (A) (A)
                 (A) (A) (A) (A) (A) (A) (A) (A) (A) (A) (A) (A)
                 (A) (A) (A) (A) (A) (A) (A) (A) (A) (A) (A) (A)
                 (A) (A) (A) (A) (A) (A) (A) (A) (A) (A) (A) (A)
                 (A) (A) (A) (A) (A) (A) (A) (A) (A) (A) (A) (A)
                 (A) (A) (A) (A) (A) (A) (A) (A) (A) (A) (A) (A)
                 (A) (A) (A) (A) (A) (A) (A) (A) (A) (A) (A) (A)
                 (A) (A) (A) (A) (A) (A) (A) (A) (A) (A) (A) (A)
                 (A) (A) (A) (A) (A) (A) (A) (A) (A) (A) (A) (A)
                 (A) (A) (A) (A) (A) (A) (A) (A) (A) (A) (A) (A)
                 (A) (A) (A) (A) (A) (A) (A) (A) (A) (A) (A) (A)
                 (A) (A) (A) (A) (A) (A) (A) (A) (A) (A) (A) (A)
                 (A) (A) (A) (A) (A) (A) (A) (A) (A) (A) (A) (A)
                 (A) (A) (A) (A) (A) (A) (A) (A) (A) (A) (A) (A)
                 (A) (A) (A) (A) (A) (A) (A) (A) (A) (A) (A) (A)
                 (A) (A) (A) (A) (A) (A) (A) (A) (A) (A) (A) (A)
                 (A) (A) (A) (A) (A) (A) (A) (A) (A) (A) (A) (A)
                 (A) (A) (A) (A) (A) (A) (A) (A) (A) (A) (A) (A)
                 (A) (A) (A) (A) (A) (A) (A) (A) (A) (A) (A) (A)
                 (A) (A) (A) (A) (A) (A) (A) (A) (A) (A) (A) (A)
                 (A) (A) (A) (A) (A) (A) (A) (A) (A) (A) (A) (A)
                 (A) (A) (A) (A) (A) (A) (A) (A) (A) (A) (A) (A)
                 (A) (A) (A) (A) (A) (A) (A) (A) (A) (A) (A) (A)
                 (A) (A) (A) (A) (A) (A)
 The electronic state is 1-A.
 Alpha  occ. eigenvalues --  -90.12509 -19.62272 -19.60505 -19.60306 -19.58281
 Alpha  occ. eigenvalues --  -19.53640 -14.85249 -14.80590 -14.72692 -10.65074
 Alpha  occ. eigenvalues --  -10.63517 -10.62772 -10.62188 -10.60259 -10.58887
 Alpha  occ. eigenvalues --  -10.58781 -10.58252 -10.58064 -10.57198 -10.56244
 Alpha  occ. eigenvalues --  -10.55752 -10.55394 -10.55176 -10.54954 -10.54618
 Alpha  occ. eigenvalues --  -10.54509 -10.54439 -10.54356 -10.54214 -10.53674
 Alpha  occ. eigenvalues --  -10.53548 -10.53340 -10.53031 -10.52666 -10.52502
 Alpha  occ. eigenvalues --  -10.52266  -8.43508  -6.35731  -6.35664  -6.35571
 Alpha  occ. eigenvalues --   -1.20224  -1.17622  -1.13440  -1.09548  -1.08581
 Alpha  occ. eigenvalues --   -1.08016  -1.03959  -0.99490  -0.95432  -0.94500
 Alpha  occ. eigenvalues --   -0.93110  -0.90237  -0.88823  -0.87487  -0.84964
 Alpha  occ. eigenvalues --   -0.84720  -0.84235  -0.83703  -0.82786  -0.81489
 Alpha  occ. eigenvalues --   -0.78485  -0.76681  -0.75887  -0.71966  -0.71920
 Alpha  occ. eigenvalues --   -0.71155  -0.68678  -0.68553  -0.68362  -0.67342
 Alpha  occ. eigenvalues --   -0.65922  -0.64562  -0.64224  -0.63109  -0.62215
 Alpha  occ. eigenvalues --   -0.60459  -0.60048  -0.58424  -0.58155  -0.56860
 Alpha  occ. eigenvalues --   -0.56294  -0.56124  -0.54879  -0.54189  -0.53855
 Alpha  occ. eigenvalues --   -0.53395  -0.53007  -0.52991  -0.51925  -0.51534
 Alpha  occ. eigenvalues --   -0.51519  -0.50854  -0.50742  -0.50451  -0.50099
 Alpha  occ. eigenvalues --   -0.49824  -0.48838  -0.48461  -0.48431  -0.47325
 Alpha  occ. eigenvalues --   -0.47276  -0.47183  -0.46743  -0.46372  -0.45980
 Alpha  occ. eigenvalues --   -0.45829  -0.44955  -0.44646  -0.43616  -0.43265
 Alpha  occ. eigenvalues --   -0.42927  -0.42235  -0.41999  -0.41898  -0.41565
 Alpha  occ. eigenvalues --   -0.40905  -0.40841  -0.40189  -0.39922  -0.39574
 Alpha  occ. eigenvalues --   -0.39360  -0.38918  -0.38558  -0.38385  -0.37993
 Alpha  occ. eigenvalues --   -0.37349  -0.37123  -0.36841  -0.36128  -0.34891
 Alpha  occ. eigenvalues --   -0.34359  -0.33992  -0.33216  -0.30549  -0.29473
 Alpha  occ. eigenvalues --   -0.28959  -0.28730  -0.27953  -0.25863  -0.24937
 Alpha virt. eigenvalues --   -0.01459   0.00345   0.03752   0.04484   0.10187
 Alpha virt. eigenvalues --    0.10676   0.11371   0.11481   0.12413   0.13415
 Alpha virt. eigenvalues --    0.13802   0.14186   0.15140   0.15400   0.15452
 Alpha virt. eigenvalues --    0.15993   0.16162   0.16462   0.17038   0.17605
 Alpha virt. eigenvalues --    0.18112   0.18177   0.18508   0.18997   0.19122
 Alpha virt. eigenvalues --    0.19253   0.19438   0.19678   0.19892   0.20339
 Alpha virt. eigenvalues --    0.20487   0.20706   0.21283   0.21387   0.21813
 Alpha virt. eigenvalues --    0.22036   0.22288   0.22584   0.22900   0.23353
 Alpha virt. eigenvalues --    0.23440   0.24079   0.24175   0.24414   0.24526
 Alpha virt. eigenvalues --    0.24811   0.25290   0.25459   0.25843   0.26465
 Alpha virt. eigenvalues --    0.27120   0.27163   0.27832   0.28244   0.28374
 Alpha virt. eigenvalues --    0.28539   0.29468   0.29853   0.30246   0.30522
 Alpha virt. eigenvalues --    0.30766   0.31474   0.31613   0.32481   0.32800
 Alpha virt. eigenvalues --    0.33317   0.34160   0.34353   0.35398   0.35866
 Alpha virt. eigenvalues --    0.35920   0.36763   0.37460   0.37952   0.38158
 Alpha virt. eigenvalues --    0.39890   0.41082   0.41257   0.42975   0.43320
 Alpha virt. eigenvalues --    0.45400   0.46027   0.46600   0.47375   0.49299
 Alpha virt. eigenvalues --    0.50266   0.51686   0.52551   0.53746   0.55236
 Alpha virt. eigenvalues --    0.55452   0.55506   0.56673   0.57063   0.57203
 Alpha virt. eigenvalues --    0.58465   0.58519   0.59064   0.59415   0.59623
 Alpha virt. eigenvalues --    0.59829   0.60441   0.60587   0.60902   0.61229
 Alpha virt. eigenvalues --    0.61483   0.61890   0.62111   0.62606   0.62808
 Alpha virt. eigenvalues --    0.63069   0.63645   0.64342   0.64984   0.65395
 Alpha virt. eigenvalues --    0.65853   0.66464   0.66985   0.67264   0.67875
 Alpha virt. eigenvalues --    0.68577   0.69111   0.69464   0.69896   0.70514
 Alpha virt. eigenvalues --    0.71092   0.71481   0.71759   0.72498   0.72663
 Alpha virt. eigenvalues --    0.73297   0.73783   0.74374   0.74960   0.75214
 Alpha virt. eigenvalues --    0.75902   0.76663   0.77060   0.77517   0.77906
 Alpha virt. eigenvalues --    0.78144   0.78993   0.79245   0.80566   0.80872
 Alpha virt. eigenvalues --    0.81289   0.81765   0.82180   0.83440   0.83800
 Alpha virt. eigenvalues --    0.84765   0.85133   0.85315   0.85641   0.86451
 Alpha virt. eigenvalues --    0.87232   0.87545   0.88154   0.88966   0.89551
 Alpha virt. eigenvalues --    0.90097   0.90427   0.90537   0.90943   0.91329
 Alpha virt. eigenvalues --    0.91763   0.91924   0.92192   0.92896   0.93109
 Alpha virt. eigenvalues --    0.93671   0.94006   0.94246   0.94481   0.94887
 Alpha virt. eigenvalues --    0.95654   0.95926   0.96265   0.96423   0.97179
 Alpha virt. eigenvalues --    0.97247   0.97360   0.97733   0.97980   0.98328
 Alpha virt. eigenvalues --    0.98676   0.99077   0.99540   0.99679   0.99856
 Alpha virt. eigenvalues --    1.00556   1.00921   1.01270   1.01868   1.02277
 Alpha virt. eigenvalues --    1.02406   1.02870   1.03753   1.04319   1.04662
 Alpha virt. eigenvalues --    1.05119   1.06188   1.06954   1.07346   1.07977
 Alpha virt. eigenvalues --    1.08301   1.09590   1.10513   1.11034   1.11919
 Alpha virt. eigenvalues --    1.12000   1.12446   1.13294   1.13901   1.14455
 Alpha virt. eigenvalues --    1.15355   1.16435   1.16687   1.17886   1.18479
 Alpha virt. eigenvalues --    1.19007   1.19721   1.20269   1.21013   1.21742
 Alpha virt. eigenvalues --    1.22184   1.23130   1.24311   1.24929   1.25597
 Alpha virt. eigenvalues --    1.25892   1.26318   1.26916   1.28007   1.29059
 Alpha virt. eigenvalues --    1.30711   1.31193   1.31668   1.32363   1.33057
 Alpha virt. eigenvalues --    1.33324   1.34159   1.34510   1.35608   1.36610
 Alpha virt. eigenvalues --    1.37661   1.38006   1.39060   1.41069   1.41969
 Alpha virt. eigenvalues --    1.42426   1.43304   1.44870   1.45523   1.46121
 Alpha virt. eigenvalues --    1.46787   1.47555   1.48613   1.49729   1.50333
 Alpha virt. eigenvalues --    1.50835   1.51378   1.51764   1.52230   1.53351
 Alpha virt. eigenvalues --    1.53854   1.54105   1.55148   1.55554   1.56172
 Alpha virt. eigenvalues --    1.56420   1.57874   1.58299   1.58862   1.59278
 Alpha virt. eigenvalues --    1.60717   1.61793   1.63381   1.64693   1.67055
 Alpha virt. eigenvalues --    1.67656   1.69132   1.69808   1.70464   1.72017
 Alpha virt. eigenvalues --    1.73055   1.74400   1.75197   1.76508   1.76938
 Alpha virt. eigenvalues --    1.78290   1.78821   1.80246   1.81254   1.81549
 Alpha virt. eigenvalues --    1.81785   1.83736   1.84620   1.84946   1.85281
 Alpha virt. eigenvalues --    1.86031   1.86152   1.86988   1.88306   1.89074
 Alpha virt. eigenvalues --    1.89451   1.89818   1.90424   1.90894   1.91085
 Alpha virt. eigenvalues --    1.91685   1.92013   1.92988   1.93539   1.93919
 Alpha virt. eigenvalues --    1.94710   1.95192   1.95804   1.96015   1.96592
 Alpha virt. eigenvalues --    1.97166   1.97724   1.97878   1.98371   1.99232
 Alpha virt. eigenvalues --    2.00439   2.00889   2.01531   2.02079   2.02570
 Alpha virt. eigenvalues --    2.03442   2.03724   2.04769   2.05080   2.05763
 Alpha virt. eigenvalues --    2.06288   2.07090   2.07462   2.07706   2.08434
 Alpha virt. eigenvalues --    2.08649   2.09145   2.10249   2.11162   2.11543
 Alpha virt. eigenvalues --    2.11893   2.13200   2.13609   2.13841   2.14831
 Alpha virt. eigenvalues --    2.15198   2.16312   2.17148   2.17507   2.18705
 Alpha virt. eigenvalues --    2.18871   2.19645   2.20953   2.21206   2.21802
 Alpha virt. eigenvalues --    2.22459   2.23012   2.23237   2.24005   2.24432
 Alpha virt. eigenvalues --    2.25311   2.26438   2.27229   2.27440   2.28550
 Alpha virt. eigenvalues --    2.28989   2.29135   2.30178   2.31109   2.31716
 Alpha virt. eigenvalues --    2.33068   2.33795   2.34584   2.35183   2.35478
 Alpha virt. eigenvalues --    2.36365   2.37284   2.37506   2.38848   2.39112
 Alpha virt. eigenvalues --    2.39477   2.39803   2.40263   2.40644   2.42137
 Alpha virt. eigenvalues --    2.42896   2.44774   2.45187   2.45862   2.47139
 Alpha virt. eigenvalues --    2.48410   2.49003   2.50445   2.50747   2.51880
 Alpha virt. eigenvalues --    2.53121   2.55126   2.56095   2.57536   2.58462
 Alpha virt. eigenvalues --    2.60050   2.60345   2.61458   2.62443   2.63243
 Alpha virt. eigenvalues --    2.64876   2.65268   2.66027   2.67335   2.68065
 Alpha virt. eigenvalues --    2.68403   2.69195   2.69428   2.71064   2.71452
 Alpha virt. eigenvalues --    2.72406   2.73788   2.74137   2.75976   2.77868
 Alpha virt. eigenvalues --    2.78590   2.79002   2.79811   2.79992   2.80532
 Alpha virt. eigenvalues --    2.83049   2.83524   2.86430   2.86892   2.88317
 Alpha virt. eigenvalues --    2.92637   2.93647   2.94072   2.95928   2.97151
 Alpha virt. eigenvalues --    2.99663   3.00038   3.01308   3.03273   3.11280
 Alpha virt. eigenvalues --    3.17035   3.21945   3.23486   3.41811   3.43664
 Alpha virt. eigenvalues --    3.94772   4.04163   4.06785   4.10898   4.12133
 Alpha virt. eigenvalues --    4.15700   4.16000   4.17600   4.18557   4.20352
 Alpha virt. eigenvalues --    4.21125   4.24408   4.24787   4.26096   4.27254
 Alpha virt. eigenvalues --    4.30853   4.31967   4.33674   4.35155   4.36176
 Alpha virt. eigenvalues --    4.38043   4.39381   4.40801   4.42973   4.46678
 Alpha virt. eigenvalues --    4.47326   4.51955   4.57166   4.58715   4.59670
 Alpha virt. eigenvalues --    4.62582   4.65197   4.68181   4.75152   4.76697
 Alpha virt. eigenvalues --    4.78340
          Condensed to atoms (all electrons):
 Mulliken charges:
               1
     1  C   -0.306264
     2  C   -0.306128
     3  C   -0.311179
     4  C   -0.066060
     5  C    0.073604
     6  C   -0.306861
     7  H    0.170545
     8  H    0.161983
     9  H    0.163224
    10  H    0.150757
    11  H    0.161125
    12  H    0.208986
    13  H    0.162519
    14  H    0.186745
    15  H    0.159163
    16  H    0.155079
    17  N   -0.429494
    18  C    0.093186
    19  C    0.093366
    20  C   -0.221885
    21  H    0.207028
    22  C   -0.226833
    23  H    0.252144
    24  C    0.430257
    25  H    0.191514
    26  H    0.208788
    27  N   -0.521708
    28  C   -0.160428
    29  H    0.175601
    30  H    0.202226
    31  C   -0.146934
    32  H    0.168501
    33  H    0.199121
    34  N   -0.820611
    35  S    1.247475
    36  O   -0.617825
    37  O   -0.633635
    38  C    0.058294
    39  C   -0.190835
    40  C   -0.189977
    41  C   -0.175323
    42  C   -0.161479
    43  C   -0.205158
    44  H    0.206788
    45  H    0.134694
    46  H    0.152710
    47  H    0.157322
    48  H    0.154662
    49  O   -0.715535
    50  H    0.469281
    51  C    0.684843
    52  O   -0.545307
    53  O   -0.651715
    54  H    0.468725
    55  C   -0.362914
    56  H    0.193253
    57  H    0.159962
    58  C   -0.033933
    59  H    0.095441
    60  H    0.111329
    61  C   -0.671859
    62  H    0.262266
    63  H    0.193732
    64  H    0.212414
    65  C   -0.291821
    66  H    0.142598
    67  H    0.165262
    68  C   -0.479373
    69  H    0.156822
    70  H    0.158463
    71  H    0.149452
    72  C   -0.334762
    73  H    0.184788
    74  H    0.167456
    75  C   -0.335878
    76  H    0.186371
    77  H    0.171849
 Sum of Mulliken charges =  -0.00000
 Mulliken charges with hydrogens summed into heavy atoms:
               1
     1  C    0.005618
     2  C    0.019079
     3  C    0.014445
     4  C    0.142926
     5  C    0.236123
     6  C    0.039047
    17  N   -0.429494
    18  C    0.300214
    19  C    0.345509
    20  C   -0.030371
    22  C   -0.018045
    24  C    0.430257
    27  N   -0.521708
    28  C    0.217399
    31  C    0.220688
    34  N   -0.351329
    35  S    1.247475
    36  O   -0.617825
    37  O   -0.633635
    38  C    0.058294
    39  C    0.015954
    40  C   -0.055283
    41  C   -0.022613
    42  C   -0.004158
    43  C   -0.050496
    49  O   -0.715535
    51  C    0.684843
    52  O   -0.545307
    53  O   -0.182989
    55  C   -0.009698
    58  C    0.172837
    61  C   -0.003448
    65  C    0.016038
    68  C   -0.014635
    72  C    0.017481
    75  C    0.022341
 Electronic spatial extent (au):  <R**2>=          14750.2448
 Charge=             -0.0000 electrons
 Dipole moment (field-independent basis, Debye):
    X=              0.2539    Y=             -1.7179    Z=             -6.3093  Tot=              6.5439
 Quadrupole moment (field-independent basis, Debye-Ang):
   XX=           -200.7163   YY=           -225.4550   ZZ=           -220.5738
   XY=            -11.2172   XZ=             -1.0300   YZ=             11.1421
 Traceless Quadrupole moment (field-independent basis, Debye-Ang):
   XX=             14.8654   YY=             -9.8733   ZZ=             -4.9921
   XY=            -11.2172   XZ=             -1.0300   YZ=             11.1421
 Octapole moment (field-independent basis, Debye-Ang**2):
  XXX=             51.4283  YYY=            -52.9759  ZZZ=             10.5540  XYY=             19.2315
  XXY=            -15.0595  XXZ=            -31.0673  XZZ=            -10.2857  YZZ=             15.2084
  YYZ=              9.0094  XYZ=            -17.0608
 Hexadecapole moment (field-independent basis, Debye-Ang**3):
 XXXX=          -9912.1932 YYYY=          -5661.1665 ZZZZ=          -3742.1106 XXXY=           -174.2621
 XXXZ=             -1.4748 YYYX=            -89.3109 YYYZ=             53.9433 ZZZX=            -89.0202
 ZZZY=              1.0455 XXYY=          -2598.5333 XXZZ=          -2351.7251 YYZZ=          -1687.9866
 XXYZ=             55.4756 YYXZ=             57.0325 ZZXY=            -43.4931
 N-N= 4.934504843984D+03 E-N=-1.452139373439D+04  KE= 1.976471965391D+03
 No NMR shielding tensors so no spin-rotation constants.
 Leave Link  601 at Thu Feb  7 19:42:01 2019, MaxMem=   104857600 cpu:              18.6 elap:               0.9
 (Enter /home/xinyan/g16/l701.exe)
 ... and contract with generalized density number  0.
 Compute integral first derivatives.
 R6Disp: Adding Grimme-D3 dispersion energy 1st derivatives to the gradient.
 Leave Link  701 at Thu Feb  7 19:42:02 2019, MaxMem=   104857600 cpu:              28.2 elap:               1.3
 (Enter /home/xinyan/g16/l702.exe)
 L702 exits ... SP integral derivatives will be done elsewhere.
 Leave Link  702 at Thu Feb  7 19:42:02 2019, MaxMem=   104857600 cpu:               1.4 elap:               0.1
 (Enter /home/xinyan/g16/l703.exe)
 Integral derivatives from FoFJK, PRISM(SPDF).
 Compute integral first derivatives, UseDBF=F ICtDFT=           0.
 Calling FoFJK, ICntrl=      2127 FMM=T ISym2X=0 I1Cent= 0 IOpClX= 0 NMat=1 NMatS=1 NMatT=0.
 FoFJK:  IHMeth= 1 ICntrl=    2127 DoSepK=F KAlg= 0 I1Cent=           0 FoldK=F
 IRaf=         0 NMat=       1 IRICut=       1 DoRegI=T DoRafI=F ISym2E= 0 IDoP0=0 IntGTp=1.
 FoFCou: FMM=T IPFlag=           0 FMFlag=      100000 FMFlg1=        2001
         NFxFlg=           0 DoJE=F BraDBF=F KetDBF=F FulRan=T
         wScrn=  0.000000 ICntrl=      2127 IOpCl=  0 I1Cent=           0 NGrid=           0
         NMat0=    1 NMatS0=      1 NMatT0=    0 NMatD0=    1 NMtDS0=    0 NMtDT0=    0
 Symmetry not used in FoFCou.
 FMM levels:  10  Number of levels for PrismC:   9
 Leave Link  703 at Thu Feb  7 19:42:35 2019, MaxMem=   104857600 cpu:             783.3 elap:              32.7
 (Enter /home/xinyan/g16/l716.exe)
 Dipole        = 9.98923763D-02-6.75859204D-01-2.48227390D+00
 ***** Axes restored to original set *****
 -------------------------------------------------------------------
 Center     Atomic                   Forces (Hartrees/Bohr)
 Number     Number              X              Y              Z
 -------------------------------------------------------------------
      1        6           0.000131304   -0.000044918    0.000133212
      2        6           0.000122596    0.000013320    0.000111825
      3        6           0.000093530    0.000010215    0.000083015
      4        6           0.000000014    0.000054970    0.000114767
      5        6           0.000331844   -0.000024015    0.000342842
      6        6           0.000138619   -0.000033362    0.000129798
      7        1           0.000063191    0.000035118    0.000058038
      8        1           0.000088364    0.000016994    0.000065599
      9        1           0.000092313    0.000042127    0.000086585
     10        1           0.000097246   -0.000013613    0.000124941
     11        1           0.000093009   -0.000013700    0.000118646
     12        1           0.000096853    0.000054914    0.000138561
     13        1          -0.000135643   -0.000000299   -0.000015509
     14        1           0.000171401   -0.000066094    0.000174546
     15        1           0.000091354   -0.000057081    0.000147182
     16        1           0.000069662    0.000042569    0.000089394
     17        7           0.000078708    0.000051025    0.000074715
     18        6           0.000000295   -0.000041701    0.000058805
     19        6           0.000028690    0.000140881    0.000089143
     20        6           0.000046847   -0.000119122   -0.000051188
     21        1           0.000000969    0.000057456    0.000137063
     22        6           0.000071705   -0.000100720   -0.000115199
     23        1           0.000071552    0.000238373    0.000204159
     24        6          -0.000009639   -0.000290119   -0.000203444
     25        1           0.000004078   -0.000132615   -0.000076258
     26        1           0.000042986   -0.000058675   -0.000072416
     27        7           0.000142333   -0.000297805   -0.000285664
     28        6           0.000102473   -0.000334600   -0.000273800
     29        1           0.000191887   -0.000334292   -0.000335115
     30        1           0.000032432   -0.000695837   -0.000136412
     31        6           0.000106793   -0.000261626   -0.000196376
     32        1           0.000153857   -0.000155509   -0.000217785
     33        1           0.000100456   -0.000241564   -0.000341852
     34        7          -0.000049227   -0.000097274   -0.000132344
     35       16           0.000076236    0.000348439   -0.001086910
     36        8           0.000680413   -0.000786670    0.000190543
     37        8           0.000672099    0.000823866   -0.000213405
     38        6          -0.001057602    0.000893564   -0.000205453
     39        6          -0.000461039    0.000652115    0.000202315
     40        6          -0.000140773    0.000332285    0.000043623
     41        6          -0.000137562    0.000147136   -0.000369500
     42        6          -0.000586451    0.000355219   -0.000705955
     43        6          -0.000918564    0.000694273   -0.000550744
     44        1          -0.000526359    0.000679299    0.000543817
     45        1           0.000106047    0.000081920    0.000303604
     46        1           0.000047391   -0.000204337   -0.000460771
     47        1          -0.000652914    0.000120759   -0.000957542
     48        1          -0.001105833    0.000614061   -0.000607979
     49        8          -0.004663283   -0.000418762   -0.000202717
     50        1           0.003912113    0.006940600    0.003852745
     51        6           0.004034872   -0.002557622   -0.000281924
     52        8           0.001139939   -0.000746525    0.000124242
     53        8           0.000752996   -0.000831077   -0.000118487
     54        1          -0.000253008   -0.000146720   -0.000041677
     55        6           0.001289364   -0.001006579   -0.000003963
     56        1          -0.000970820   -0.002025194   -0.000423749
     57        1           0.001590375    0.001234492    0.001056353
     58        6          -0.002353284    0.000682480   -0.000001325
     59        1          -0.001745753    0.001878774   -0.000281264
     60        1          -0.000954784   -0.001367755    0.000620768
     61        6          -0.000277849   -0.000229992   -0.000193250
     62        1          -0.000618001    0.000153397    0.000171407
     63        1          -0.000340041   -0.000323144   -0.000014570
     64        1          -0.000105691   -0.000286251   -0.000235872
     65        6           0.000324609   -0.000563302    0.000124623
     66        1           0.000293980   -0.000094260   -0.000245269
     67        1          -0.000023593   -0.000871040    0.000650128
     68        6          -0.000106271   -0.000183330    0.000102352
     69        1          -0.000406727   -0.000114528    0.000102478
     70        1          -0.000233015   -0.000309906    0.000155694
     71        1           0.000064532    0.000116559   -0.000041906
     72        6           0.000093535   -0.000164412   -0.000120389
     73        1           0.000024211   -0.000121629   -0.000067019
     74        1           0.000194507   -0.000150379   -0.000061858
     75        6           0.000135595   -0.000234392   -0.000223612
     76        1           0.000401463   -0.000065222   -0.000291714
     77        1           0.000142087   -0.000289629   -0.000265344
 -------------------------------------------------------------------
 Cartesian Forces:  Max     0.006940600 RMS     0.000871950
 Z-matrix is all fixed cartesians, so copy forces.
 Leave Link  716 at Thu Feb  7 19:42:35 2019, MaxMem=   104857600 cpu:               2.4 elap:               0.1
 (Enter /home/xinyan/g16/l103.exe)

 GradGradGradGradGradGradGradGradGradGradGradGradGradGradGradGradGradGrad
 Berny optimization.
 Search for a local minimum.
 Step number   1 out of a maximum of    2
 All quantities printed in internal units (Hartrees-Bohrs-Radians)
 Second derivative matrix not updated -- first step.
 ITU=  0
     Eigenvalues ---   -0.00000  -0.00000   0.00000   0.00000   0.00000
     Eigenvalues ---    0.00000   0.00000   0.00000   0.00000   0.00000
     Eigenvalues ---    0.00000   0.00000   0.00013   0.00018   0.00038
     Eigenvalues ---    0.00087   0.00116   0.00135   0.00169   0.00208
     Eigenvalues ---    0.00225   0.00256   0.00268   0.00283   0.00405
     Eigenvalues ---    0.00466   0.00478   0.00584   0.00612   0.00624
     Eigenvalues ---    0.00655   0.00702   0.00809   0.00974   0.01144
     Eigenvalues ---    0.01411   0.01645   0.01650   0.01853   0.01891
     Eigenvalues ---    0.02001   0.02025   0.02267   0.02371   0.02409
     Eigenvalues ---    0.02438   0.02510   0.02819   0.03082   0.03395
     Eigenvalues ---    0.03508   0.03539   0.03551   0.03821   0.03838
     Eigenvalues ---    0.04161   0.04302   0.04354   0.04820   0.04855
     Eigenvalues ---    0.04916   0.05007   0.05042   0.05062   0.05104
     Eigenvalues ---    0.05131   0.05151   0.05278   0.05345   0.05493
     Eigenvalues ---    0.05517   0.05635   0.05694   0.05718   0.05737
     Eigenvalues ---    0.05785   0.05822   0.06109   0.06130   0.06323
     Eigenvalues ---    0.06384   0.06504   0.06535   0.06842   0.06968
     Eigenvalues ---    0.07049   0.07127   0.07214   0.07258   0.07317
     Eigenvalues ---    0.07355   0.07570   0.07879   0.07932   0.07980
     Eigenvalues ---    0.08055   0.08140   0.08529   0.09086   0.09668
     Eigenvalues ---    0.09750   0.09960   0.10185   0.10407   0.10565
     Eigenvalues ---    0.11207   0.11469   0.11504   0.11899   0.12277
     Eigenvalues ---    0.12379   0.12905   0.12955   0.12979   0.13310
     Eigenvalues ---    0.13708   0.13774   0.13922   0.14542   0.14555
     Eigenvalues ---    0.14687   0.15921   0.16566   0.16606   0.16908
     Eigenvalues ---    0.16971   0.17261   0.17517   0.17717   0.17753
     Eigenvalues ---    0.18106   0.19244   0.20090   0.20554   0.20978
     Eigenvalues ---    0.21183   0.21992   0.22849   0.23330   0.24630
     Eigenvalues ---    0.26338   0.27483   0.29354   0.29568   0.30268
     Eigenvalues ---    0.31247   0.31397   0.31780   0.32446   0.34675
     Eigenvalues ---    0.35004   0.36343   0.39378   0.39787   0.42989
     Eigenvalues ---    0.43976   0.44489   0.44956   0.47716   0.49334
     Eigenvalues ---    0.50039   0.51091   0.56277   0.56810   0.62421
     Eigenvalues ---    0.64122   0.64900   0.66203   0.68227   0.68608
     Eigenvalues ---    0.70528   0.72920   0.75697   0.76021   0.78043
     Eigenvalues ---    0.80264   0.82915   0.83091   0.84605   0.85372
     Eigenvalues ---    0.87208   0.88834   0.88909   0.90509   0.91239
     Eigenvalues ---    0.92886   0.94582   0.94773   0.95764   0.96244
     Eigenvalues ---    0.96955   0.97672   0.99574   1.00331   1.00568
     Eigenvalues ---    1.00666   1.02491   1.04171   1.04394   1.06094
     Eigenvalues ---    1.06269   1.06526   1.07073   1.08006   1.09305
     Eigenvalues ---    1.10218   1.14670   1.15829   1.19376   1.21096
     Eigenvalues ---    1.23752   1.26425   1.29002   1.34206   1.36796
     Eigenvalues ---    1.48032   1.53636   1.57461   1.58912   1.60371
     Eigenvalues ---    1.66441   1.74615   1.82316   2.21310   2.25579
 Eigenvalue     1 is  -8.88D-16 should be greater than     0.000000 Eigenvector:
                          X69       X67       X66       X68       X65
   1                    0.19420   0.19420   0.19420   0.19420   0.19420
                          X70       X71       X52       X55       X51
   1                    0.19420   0.19420   0.19420   0.19420   0.19420
 Eigenvalue     2 is  -2.22D-16 should be greater than     0.000000 Eigenvector:
                          X47       X46       X42       X48       X41
   1                    0.13315   0.13315   0.13315   0.13315   0.13315
                          X43       X60       X40       X38       X45
   1                    0.13315   0.13315   0.13315   0.13315   0.13315
 Eigenvalue     3 is   2.22D-16 Eigenvector:
                          Y46       Y41       Y47       Y45       Y42
   1                    0.18052   0.18052   0.18052   0.18052   0.18052
                          Y40       Y43       Y39       Y48       Y44
   1                    0.18052   0.18052   0.18052   0.18052   0.18052
 Eigenvalue     4 is   6.06D-09 Eigenvector:
                          Z54       Z53       Z52       Z51       Z44
   1                    0.27492   0.23424   0.23060   0.21001  -0.17246
                          Z49       Z60       X69       X59       Z55
   1                   -0.16267  -0.15505  -0.15492   0.15209   0.14918
 Eigenvalue     5 is   7.69D-09 Eigenvector:
                          Z54       Z69       Z70       Z71       X54
   1                    0.28845  -0.27541  -0.25233  -0.24959   0.24127
                          Z68       X53       Z53       X69       Z52
   1                   -0.22220   0.21345   0.19750  -0.18787   0.18479
 Eigenvalue     6 is   1.42D-08 Eigenvector:
                          X45       X46       Z47       X40       X41
   1                    0.31188   0.26103  -0.22769   0.21852   0.19042
                          Y60       X59       Z44       Y49       X44
   1                    0.18771  -0.17325   0.16690   0.16602   0.15246
 Eigenvalue     7 is   2.27D-08 Eigenvector:
                          X54       Y54       X53       X69       X70
   1                    0.32007  -0.26426   0.25456  -0.23991  -0.23411
                          Y69       Z54       Y71       X52       Y53
   1                    0.23182  -0.23180   0.22140   0.20039  -0.19886
 Eigenvalue     8 is   6.05D-08 Eigenvector:
                          Y47       Y44       Y48       Y45       X49
   1                    0.34777  -0.32355   0.30834  -0.29829  -0.29586
                          X47       Y42       X44       Y39       Y43
   1                    0.21395   0.19755  -0.19225  -0.18257   0.17561
 Eigenvalue     9 is   1.26D-07 Eigenvector:
                          Z69       Z70       Y46       Z68       Z71
   1                    0.17950   0.17908  -0.17132   0.16576   0.16278
                          Z67       Z65       Y77       Y32       Z77
   1                    0.13807   0.13463  -0.13408  -0.12995  -0.12856
 Eigenvalue    10 is   1.76D-07 Eigenvector:
                          Y59       Y46       Y49       X59       Y45
   1                    0.27696  -0.24625   0.24038   0.23371  -0.22003
                          Y60       Y58       X49       X46       X58
   1                    0.20999   0.20876   0.20625  -0.18416   0.17845
 Eigenvalue    11 is   2.95D-07 Eigenvector:
                          Y64       Y62       Y61       Y46       Y63
   1                    0.22968   0.18759   0.18284   0.17584   0.16577
                          Y9        Y7        Y45       Y16       Y37
   1                   -0.15948  -0.15150   0.14781  -0.14711   0.14578
 Eigenvalue    12 is   4.02D-06 Eigenvector:
                          X52       X66       X56       Z67       Z71
   1                    0.33740   0.33494  -0.32113  -0.30548   0.27978
                          X70       Z57       Y67       Y52       Y57
   1                   -0.26007   0.25301  -0.19688  -0.19075   0.17461
 Quadratic step=7.221D+01 exceeds max=3.000D-01 adjusted using Lamda=-3.148D-02.
 Angle between NR and scaled steps=  37.39 degrees.
 Angle between quadratic step and forces=  31.81 degrees.
 Linear search not attempted -- first point.
 B after Tr=     0.000949   -0.000093   -0.000671
         Rot=    1.000000   -0.000023   -0.000052   -0.000004 Ang=  -0.01 deg.
 Variable       Old X    -DE/DX   Delta X   Delta X   Delta X     New X
                                 (Linear)    (Quad)   (Total)
    X1       -9.34999   0.00013   0.00000   0.00451   0.00539  -9.34460
    Y1        0.49602  -0.00004   0.00000   0.00032   0.00018   0.49620
    Z1       -0.66171   0.00013   0.00000   0.00512   0.00544  -0.65626
    X2       -9.66117   0.00012   0.00000   0.00476   0.00550  -9.65567
    Y2       -1.89855   0.00001   0.00000   0.00091   0.00085  -1.89770
    Z2       -2.25690   0.00011   0.00000   0.00472   0.00496  -2.25194
    X3       -7.11767   0.00009   0.00000   0.00612   0.00674  -7.11093
    Y3       -2.72470   0.00001   0.00000   0.00278   0.00279  -2.72192
    Z3       -3.37261   0.00008   0.00000   0.00706   0.00700  -3.36562
    X4       -5.25331   0.00000   0.00000   0.00871   0.00956  -5.24375
    Y4       -3.18190   0.00005   0.00000   0.00906   0.00899  -3.17291
    Z4       -1.22158   0.00011   0.00000   0.00876   0.00848  -1.21309
    X5       -4.86512   0.00033   0.00000   0.01226   0.01325  -4.85187
    Y5       -0.75633  -0.00002   0.00000   0.01556   0.01541  -0.74092
    Z5        0.37810   0.00034   0.00000   0.00658   0.00638   0.38447
    X6       -7.41207   0.00014   0.00000   0.00621   0.00731  -7.40476
    Y6        0.11784  -0.00003   0.00000   0.00269   0.00247   0.12032
    Z6        1.45624   0.00013   0.00000   0.00519   0.00529   1.46153
    X7       -7.31887   0.00006   0.00000   0.00635   0.00686  -7.31201
    Y7       -4.43345   0.00004   0.00000   0.00175   0.00181  -4.43164
    Z7       -4.52444   0.00006   0.00000   0.00782   0.00770  -4.51674
    X8      -10.42286   0.00009   0.00000   0.00381   0.00467 -10.41819
    Y8       -3.42800   0.00002   0.00000   0.00045   0.00033  -3.42767
    Z8       -1.07975   0.00007   0.00000   0.00344   0.00369  -1.07607
    X9      -11.01705   0.00009   0.00000   0.00540   0.00597 -11.01107
    Y9       -1.58217   0.00004   0.00000   0.00116   0.00116  -1.58102
    Z9       -3.78722   0.00009   0.00000   0.00385   0.00424  -3.78298
   X10       -8.71438   0.00010   0.00000   0.00292   0.00366  -8.71072
   Y10        2.04644  -0.00001   0.00000   0.00042   0.00035   2.04679
   Z10       -1.88804   0.00012   0.00000   0.00447   0.00480  -1.88325
   X11      -11.17456   0.00009   0.00000   0.00394   0.00489 -11.16966
   Y11        1.06104  -0.00001   0.00000  -0.00074  -0.00092   1.06012
   Z11        0.13430   0.00012   0.00000   0.00478   0.00531   0.13961
   X12       -5.98121   0.00010   0.00000   0.00774   0.00872  -5.97249
   Y12       -4.67669   0.00005   0.00000   0.00927   0.00913  -4.66756
   Z12        0.00894   0.00014   0.00000   0.00913   0.00886   0.01780
   X13       -4.23265  -0.00014   0.00000  -0.00121  -0.00037  -4.23301
   Y13        0.71133  -0.00000   0.00000   0.01380   0.01371   0.72505
   Z13       -0.94853  -0.00002   0.00000  -0.00022  -0.00042  -0.94895
   X14       -8.10148   0.00017   0.00000   0.00917   0.01042  -8.09107
   Y14       -1.27955  -0.00007   0.00000  -0.00081  -0.00109  -1.28065
   Z14        2.82070   0.00017   0.00000   0.00359   0.00369   2.82439
   X15       -7.09492   0.00009   0.00000   0.00011   0.00130  -7.09362
   Y15        1.89900  -0.00006   0.00000   0.00224   0.00198   1.90098
   Z15        2.46564   0.00015   0.00000   0.00709   0.00724   2.47288
   X16       -6.43359   0.00007   0.00000   0.00326   0.00374  -6.42985
   Y16       -1.20139   0.00004   0.00000   0.00184   0.00191  -1.19948
   Z16       -4.60566   0.00009   0.00000   0.00431   0.00425  -4.60141
   X17       -2.73128   0.00008   0.00000   0.00433   0.00509  -2.72619
   Y17       -4.05552   0.00005   0.00000   0.00384   0.00382  -4.05170
   Z17       -2.06649   0.00007   0.00000   0.00539   0.00481  -2.06168
   X18       -1.45494   0.00000   0.00000   0.00256   0.00313  -1.45181
   Y18       -2.78514  -0.00004   0.00000   0.00023   0.00031  -2.78483
   Z18       -3.88826   0.00006   0.00000   0.00221   0.00156  -3.88670
   X19       -1.41622   0.00003   0.00000   0.00323   0.00417  -1.41204
   Y19       -5.59535   0.00014   0.00000   0.00249   0.00241  -5.59293
   Z19       -0.49651   0.00009   0.00000   0.00422   0.00343  -0.49307
   X20        1.10073   0.00005   0.00000   0.00175   0.00229   1.10302
   Y20       -2.97027  -0.00012   0.00000  -0.00392  -0.00381  -2.97408
   Z20       -4.16532  -0.00005   0.00000  -0.00156  -0.00249  -4.16780
   X21       -2.57220   0.00000   0.00000   0.00180   0.00223  -2.56997
   Y21       -1.55921   0.00006   0.00000   0.00143   0.00156  -1.55766
   Z21       -5.08495   0.00014   0.00000   0.00402   0.00354  -5.08141
   X22        1.14325   0.00007   0.00000   0.00227   0.00320   1.14644
   Y22       -5.86261  -0.00010   0.00000  -0.00295  -0.00300  -5.86561
   Z22       -0.64230  -0.00012   0.00000  -0.00066  -0.00173  -0.64402
   X23       -2.51305   0.00007   0.00000   0.00325   0.00435  -2.50870
   Y23       -6.53450   0.00024   0.00000   0.00653   0.00637  -6.52813
   Z23        0.95802   0.00020   0.00000   0.00688   0.00617   0.96418
   X24        2.54232  -0.00001   0.00000   0.00213   0.00286   2.54519
   Y24       -4.39821  -0.00029   0.00000  -0.00605  -0.00601  -4.40422
   Z24       -2.39770  -0.00020   0.00000  -0.00347  -0.00460  -2.40231
   X25        2.00848   0.00000   0.00000   0.00096   0.00134   2.00982
   Y25       -1.90176  -0.00013   0.00000  -0.00499  -0.00481  -1.90657
   Z25       -5.65370  -0.00008   0.00000  -0.00273  -0.00369  -5.65740
   X26        2.06205   0.00004   0.00000   0.00219   0.00327   2.06532
   Y26       -7.03513  -0.00006   0.00000  -0.00329  -0.00340  -7.03853
   Z26        0.75540  -0.00007   0.00000  -0.00113  -0.00234   0.75306
   X27        5.06649   0.00014   0.00000   0.00245   0.00318   5.06967
   Y27       -4.34217  -0.00030   0.00000  -0.00814  -0.00809  -4.35026
   Z27       -2.36255  -0.00029   0.00000  -0.00549  -0.00688  -2.36944
   X28        6.46538   0.00010   0.00000   0.00277   0.00374   6.46911
   Y28       -5.34139  -0.00033   0.00000  -0.01056  -0.01060  -5.35198
   Z28       -0.18028  -0.00027   0.00000  -0.00650  -0.00809  -0.18837
   X29        6.22035   0.00019   0.00000   0.00552   0.00652   6.22688
   Y29       -7.38702  -0.00033   0.00000  -0.01116  -0.01121  -7.39822
   Z29       -0.02542  -0.00034   0.00000  -0.01069  -0.01235  -0.03776
   X30        5.75365   0.00003   0.00000   0.00037   0.00151   5.75516
   Y30       -4.42409  -0.00070   0.00000  -0.01683  -0.01695  -4.44104
   Z30        1.54196  -0.00014   0.00000  -0.00433  -0.00580   1.53616
   X31        6.51160   0.00011   0.00000   0.00307   0.00365   6.51525
   Y31       -2.34402  -0.00026   0.00000  -0.00788  -0.00776  -2.35177
   Z31       -3.65501  -0.00020   0.00000  -0.00521  -0.00666  -3.66168
   X32        7.00571   0.00015   0.00000   0.00384   0.00424   7.00994
   Y32       -2.95510  -0.00016   0.00000  -0.00739  -0.00717  -2.96227
   Z32       -5.57214  -0.00022   0.00000  -0.00519  -0.00672  -5.57886
   X33        5.38797   0.00010   0.00000   0.00315   0.00371   5.39168
   Y33       -0.61314  -0.00024   0.00000  -0.00787  -0.00775  -0.62089
   Z33       -3.73198  -0.00034   0.00000  -0.00689  -0.00814  -3.74012
   X34       -2.77370  -0.00005   0.00000   0.01818   0.01936  -2.75435
   Y34       -1.01739  -0.00010   0.00000   0.04296   0.04275  -0.97464
   Z34        2.13454  -0.00013   0.00000   0.01156   0.01113   2.14567
   X35       -2.88743   0.00008   0.00000   0.01718   0.01863  -2.86880
   Y35       -2.72289   0.00035   0.00000   0.01442   0.01409  -2.70879
   Z35        4.65925  -0.00109   0.00000  -0.00765  -0.00815   4.65110
   X36       -5.12053   0.00068   0.00000   0.03244   0.03390  -5.08664
   Y36       -4.37613  -0.00079   0.00000  -0.00704  -0.00738  -4.38352
   Z36        4.59869   0.00019   0.00000  -0.01830  -0.01865   4.58004
   X37       -0.41239   0.00067   0.00000   0.02591   0.02741  -0.38499
   Y37       -3.96499   0.00082   0.00000   0.03305   0.03272  -3.93226
   Z37        4.99124  -0.00021   0.00000  -0.00421  -0.00502   4.98621
   X38       -1.45462  -0.00106   0.00000  -0.03494  -0.03400  -1.48862
   Y38        4.79529   0.00089   0.00000   0.02384   0.02372   4.81902
   Z38        0.18606  -0.00021   0.00000  -0.00453  -0.00482   0.18124
   X39       -0.40828  -0.00046   0.00000  -0.01926  -0.01854  -0.42681
   Y39        3.56006   0.00065   0.00000   0.01999   0.01999   3.58004
   Z39       -1.91244   0.00020   0.00000   0.00588   0.00542  -1.90702
   X40       -1.63869  -0.00014   0.00000  -0.00673  -0.00625  -1.64495
   Y40        3.64708   0.00033   0.00000   0.01081   0.01090   3.65798
   Z40       -4.23905   0.00004   0.00000  -0.00032  -0.00065  -4.23970
   X41       -3.95608  -0.00014   0.00000  -0.00785  -0.00740  -3.96349
   Y41        4.88498   0.00015   0.00000   0.00581   0.00590   4.89088
   Z41       -4.48910  -0.00037   0.00000  -0.01487  -0.01491  -4.50401
   X42       -5.02420  -0.00059   0.00000  -0.02044  -0.01979  -5.04398
   Y42        6.06617   0.00036   0.00000   0.01265   0.01263   6.07880
   Z42       -2.39349  -0.00071   0.00000  -0.02489  -0.02476  -2.41825
   X43       -3.76528  -0.00092   0.00000  -0.03217  -0.03128  -3.79656
   Y43        6.02405   0.00069   0.00000   0.02301   0.02289   6.04694
   Z43       -0.08273  -0.00055   0.00000  -0.01911  -0.01911  -0.10184
   X44        1.32521  -0.00053   0.00000  -0.01984  -0.01908   1.30612
   Y44        2.47501   0.00068   0.00000   0.02157   0.02156   2.49657
   Z44       -1.67811   0.00054   0.00000   0.01919   0.01850  -1.65962
   X45       -0.79240   0.00011   0.00000   0.00253   0.00285  -0.78955
   Y45        2.73619   0.00008   0.00000   0.00480   0.00497   2.74116
   Z45       -5.87847   0.00030   0.00000   0.00784   0.00738  -5.87109
   X46       -4.91841   0.00005   0.00000  -0.00012   0.00014  -4.91827
   Y46        4.93812  -0.00020   0.00000  -0.00468  -0.00451   4.93361
   Z46       -6.30074  -0.00046   0.00000  -0.01884  -0.01877  -6.31952
   X47       -6.83331  -0.00065   0.00000  -0.02235  -0.02172  -6.85503
   Y47        7.02150   0.00012   0.00000   0.00680   0.00677   7.02827
   Z47       -2.54748  -0.00096   0.00000  -0.03530  -0.03493  -2.58242
   X48       -4.58952  -0.00111   0.00000  -0.04080  -0.03974  -4.62926
   Y48        6.93150   0.00061   0.00000   0.02284   0.02264   6.95414
   Z48        1.56672  -0.00061   0.00000  -0.02337  -0.02323   1.54348
   X49        0.46055  -0.00466   0.00000  -0.13954  -0.13826   0.32229
   Y49        2.21627  -0.00042   0.00000  -0.00794  -0.00819   2.20809
   Z49        3.38013  -0.00020   0.00000   0.01464   0.01404   3.39417
   X50       -1.20706   0.00391   0.00000   0.00147   0.00267  -1.20439
   Y50        0.56081   0.00694   0.00000   0.08395   0.08373   0.64455
   Z50        2.43183   0.00385   0.00000   0.05810   0.05759   2.48942
   X51        4.17964   0.00403   0.00000   0.06921   0.07041   4.25005
   Y51        0.60341  -0.00256   0.00000  -0.04900  -0.04918   0.55423
   Z51        2.51638  -0.00028   0.00000  -0.00394  -0.00503   2.51135
   X52        3.69942   0.00114   0.00000   0.05896   0.05996   3.75938
   Y52       -0.24011  -0.00075   0.00000  -0.04145  -0.04153  -0.28164
   Z52        0.41901   0.00012   0.00000  -0.00425  -0.00532   0.41369
   X53        4.01977   0.00075   0.00000   0.02998   0.03142   4.05119
   Y53       -0.80259  -0.00083   0.00000  -0.03463  -0.03491  -0.83749
   Z53        4.62155  -0.00012   0.00000   0.00211   0.00098   4.62253
   X54        2.65318  -0.00025   0.00000   0.00674   0.00816   2.66134
   Y54       -2.04346  -0.00015   0.00000  -0.00914  -0.00941  -2.05287
   Z54        4.40764  -0.00004   0.00000  -0.00175  -0.00279   4.40484
   X55        5.70669   0.00129   0.00000   0.03130   0.03253   5.73922
   Y55        2.98471  -0.00101   0.00000  -0.02671  -0.02689   2.95782
   Z55        2.93155  -0.00000   0.00000   0.00419   0.00306   2.93461
   X56        4.87062  -0.00097   0.00000  -0.01252  -0.01114   4.85948
   Y56        4.09292  -0.00203   0.00000  -0.04705  -0.04731   4.04561
   Z56        4.46616  -0.00042   0.00000  -0.00581  -0.00680   4.45936
   X57        7.54912   0.00159   0.00000   0.04077   0.04207   7.59119
   Y57        2.32402   0.00123   0.00000   0.01904   0.01884   2.34286
   Z57        3.62688   0.00106   0.00000   0.02393   0.02259   3.64946
   X58       -0.19194  -0.00235   0.00000  -0.06496  -0.06376  -0.25570
   Y58        4.64997   0.00068   0.00000   0.00966   0.00943   4.65941
   Z58        2.75851  -0.00000   0.00000   0.00599   0.00556   2.76407
   X59       -1.49092  -0.00175   0.00000  -0.05623  -0.05490  -1.54582
   Y59        5.49338   0.00188   0.00000   0.05115   0.05085   5.54423
   Z59        4.16469  -0.00028   0.00000  -0.01022  -0.01048   4.15422
   X60        1.48213  -0.00095   0.00000  -0.03014  -0.02895   1.45319
   Y60        5.91564  -0.00137   0.00000  -0.03698  -0.03719   5.87845
   Z60        2.74313   0.00062   0.00000   0.01718   0.01663   2.75976
   X61       -3.11468  -0.00028   0.00000  -0.00980  -0.00810  -3.12279
   Y61       -0.52561  -0.00023   0.00000  -0.00240  -0.00285  -0.52846
   Z61        7.20668  -0.00019   0.00000   0.00198   0.00161   7.20829
   X62       -1.52614  -0.00062   0.00000  -0.01821  -0.01655  -1.54269
   Y62        0.77277   0.00015   0.00000   0.00919   0.00877   0.78153
   Z62        6.93535   0.00017   0.00000   0.01087   0.01039   6.94574
   X63       -4.91644  -0.00034   0.00000  -0.01547  -0.01380  -4.93024
   Y63        0.46686  -0.00032   0.00000  -0.01317  -0.01363   0.45323
   Z63        7.05894  -0.00001   0.00000   0.00078   0.00064   7.05958
   X64       -2.97464  -0.00011   0.00000  -0.00655  -0.00467  -2.97930
   Y64       -1.55725  -0.00029   0.00000  -0.01004  -0.01057  -1.56782
   Z64        8.98599  -0.00024   0.00000  -0.00313  -0.00356   8.98242
   X65        6.08832   0.00032   0.00000   0.00990   0.01087   6.09919
   Y65        4.56802  -0.00056   0.00000  -0.01720  -0.01727   4.55075
   Z65        0.55052   0.00012   0.00000   0.00661   0.00552   0.55604
   X66        6.79143   0.00029   0.00000   0.01194   0.01276   6.80419
   Y66        3.34559  -0.00009   0.00000  -0.00583  -0.00582   3.33977
   Z66       -0.96716  -0.00025   0.00000  -0.00174  -0.00296  -0.97012
   X67        4.27500  -0.00002   0.00000   0.00079   0.00169   4.27668
   Y67        5.30875  -0.00087   0.00000  -0.02902  -0.02908   5.27967
   Z67       -0.12106   0.00065   0.00000   0.01779   0.01692  -0.10414
   X68        7.92908  -0.00011   0.00000  -0.00405  -0.00305   7.92603
   Y68        6.74617  -0.00018   0.00000  -0.00520  -0.00528   6.74089
   Z68        0.99655   0.00010   0.00000   0.00445   0.00328   0.99982
   X69        8.26243  -0.00041   0.00000  -0.01435  -0.01354   8.24889
   Y69        7.82672  -0.00011   0.00000  -0.00242  -0.00241   7.82430
   Z69       -0.73433   0.00010   0.00000   0.00423   0.00307  -0.73126
   X70        7.20417  -0.00023   0.00000  -0.00884  -0.00771   7.19646
   Y70        8.05386  -0.00031   0.00000  -0.01045  -0.01060   8.04326
   Z70        2.42784   0.00016   0.00000   0.00674   0.00570   2.43354
   X71        9.75713   0.00006   0.00000   0.00180   0.00287   9.76000
   Y71        6.04113   0.00012   0.00000   0.00537   0.00528   6.04641
   Z71        1.66610  -0.00004   0.00000  -0.00035  -0.00175   1.66434
   X72        9.18605   0.00009   0.00000   0.00258   0.00348   9.18954
   Y72       -4.56392  -0.00016   0.00000  -0.00614  -0.00613  -4.57005
   Z72       -0.72424  -0.00012   0.00000  -0.00257  -0.00440  -0.72864
   X73       10.32333   0.00002   0.00000   0.00012   0.00121  10.32454
   Y73       -4.48557  -0.00012   0.00000  -0.00422  -0.00428  -4.48985
   Z73        0.99513  -0.00007   0.00000  -0.00102  -0.00297   0.99216
   X74       10.06309   0.00019   0.00000   0.00603   0.00682  10.06991
   Y74       -5.90515  -0.00015   0.00000  -0.00564  -0.00556  -5.91071
   Z74       -2.03352  -0.00006   0.00000  -0.00067  -0.00265  -2.03617
   X75        8.84532   0.00014   0.00000   0.00360   0.00436   8.84968
   Y75       -1.98382  -0.00023   0.00000  -0.00727  -0.00720  -1.99101
   Z75       -1.98255  -0.00022   0.00000  -0.00552  -0.00720  -1.98975
   X76        8.40121   0.00040   0.00000   0.00723   0.00813   8.40934
   Y76       -0.57083  -0.00007   0.00000  -0.00415  -0.00415  -0.57498
   Z76       -0.54127  -0.00029   0.00000  -0.00749  -0.00905  -0.55033
   X77       10.49435   0.00014   0.00000   0.00376   0.00440  10.49875
   Y77       -1.35560  -0.00029   0.00000  -0.01017  -0.01004  -1.36563
   Z77       -3.05147  -0.00027   0.00000  -0.00711  -0.00893  -3.06040
         Item               Value     Threshold  Converged?
 Maximum Force            0.006941     0.000450     NO 
 RMS     Force            0.000872     0.000300     NO 
 Maximum Displacement     0.138258     0.001800     NO 
 RMS     Displacement     0.019749     0.001200     NO 
 Predicted change in Energy=-3.114497D-03
 GradGradGradGradGradGradGradGradGradGradGradGradGradGradGradGradGradGrad

 Leave Link  103 at Thu Feb  7 19:42:36 2019, MaxMem=   104857600 cpu:              20.7 elap:               0.9
 (Enter /home/xinyan/g16/l9999.exe)
 1\1\GINC-TSE4\Force\RM062X\6-31G(d)\C27H41N3O5S1\STEVETSE\07-Feb-2019\
 0\\#p M062X/6-31G* em=gd3 force int=ultrafine\\Title\\0,1\C,-4.9478,0.
 26248,-0.35016\C,-5.11247,-1.00467,-1.1943\C,-3.76651,-1.44185,-1.7847
 1\C,-2.77993,-1.68379,-0.64643\C,-2.57451,-0.40023,0.20008\C,-3.9223,0
 .06236,0.77061\H,-3.87298,-2.34608,-2.39423\H,-5.51554,-1.81402,-0.571
 38\H,-5.82997,-0.83725,-2.00411\H,-4.61145,1.08293,-0.99911\H,-5.91332
 ,0.56148,0.07107\H,-3.16512,-2.4748,0.00473\H,-2.23982,0.37642,-0.5019
 4\H,-4.28712,-0.67711,1.49265\H,-3.75447,1.00491,1.30476\H,-3.40451,-0
 .63575,-2.43721\N,-1.44533,-2.14609,-1.09354\C,-0.76992,-1.47383,-2.05
 758\C,-0.74943,-2.96093,-0.26274\C,0.58248,-1.5718,-2.20419\H,-1.36115
 ,-0.8251,-2.69084\C,0.60498,-3.10236,-0.33989\H,-1.32985,-3.45791,0.50
 696\C,1.34534,-2.32743,-1.26881\H,1.06284,-1.00637,-2.99181\H,1.09119,
 -3.72283,0.39974\N,2.68107,-2.29778,-1.25021\C,3.42133,-2.82654,-0.095
 4\H,3.29167,-3.90904,-0.01345\H,3.0447,-2.34113,0.81597\C,3.44579,-1.2
 404,-1.93415\H,3.70726,-1.56377,-2.94865\H,2.85119,-0.32446,-1.97488\N
 ,-1.46778,-0.53838,1.12955\S,-1.52796,-1.44089,2.46557\O,-2.70967,-2.3
 1575,2.43352\O,-0.21823,-2.09818,2.64125\C,-0.76975,2.53756,0.09846\C,
 -0.21605,1.8839,-1.01202\C,-0.86716,1.92995,-2.24321\C,-2.09347,2.5850
 2,-2.37553\C,-2.65869,3.21008,-1.26658\C,-1.9925,3.18779,-0.04378\H,0.
 70127,1.30972,-0.88802\H,-0.41932,1.44793,-3.11075\H,-2.60271,2.61314,
 -3.33421\H,-3.61603,3.71562,-1.34807\H,-2.42867,3.66799,0.82907\O,0.24
 371,1.1728,1.78869\H,-0.63875,0.29677,1.28687\C,2.21177,0.31931,1.3316
 1\O,1.95765,-0.12706,0.22173\O,2.12717,-0.42471,2.44562\H,1.404,-1.081
 35,2.33242\C,3.01985,1.57944,1.55131\H,2.57742,2.16588,2.36339\H,3.994
 82,1.22982,1.91926\C,-0.10157,2.46066,1.45974\H,-0.78896,2.90697,2.203
 86\H,0.78431,3.13042,1.4516\C,-1.64822,-0.27814,3.81361\H,-0.8076,0.40
 893,3.67003\H,-2.60167,0.24705,3.73543\H,-1.57411,-0.82406,4.75518\C,3
 .2218,2.41729,0.29132\H,3.59387,1.77041,-0.5118\H,2.26223,2.80927,-0.0
 6406\C,4.19589,3.56992,0.52735\H,4.37229,4.14172,-0.38859\H,3.81228,4.
 26192,1.28476\H,5.16325,3.19683,0.88166\C,4.86105,-2.41512,-0.38325\H,
 5.46287,-2.37366,0.5266\H,5.32516,-3.12487,-1.07609\C,4.68074,-1.04979
 ,-1.04912\H,4.44573,-0.30207,-0.28643\H,5.55337,-0.71735,-1.61477\\Ver
 sion=ES64L-G16RevA.03\State=1-A\HF=-1991.3616507\RMSD=6.853e-09\RMSF=8
 .720e-04\Dipole=0.0859159,-0.6715019,-2.483979\Quadrupole=10.7090377,-
 7.0393108,-3.6697268,-8.7000562,-0.6229507,8.2905546\PG=C01 [X(C27H41N
 3O5S1)]\\@


 DON'T WORRY CHARLIE BROWN...WE LEARN MORE FROM LOSING 
 THAN WE DO FROM WINNING.
 THEN THAT MAKES ME THE SMARTEST PERSON IN THE WORLD...
 CHARLES SCHULZ 'PEANUTS'
 Job cpu time:       0 days  1 hours 19 minutes 58.0 seconds.
 Elapsed time:       0 days  0 hours  3 minutes 21.0 seconds.
 File lengths (MBytes):  RWF=    216 Int=      0 D2E=      0 Chk=     25 Scr=      1
 Normal termination of Gaussian 16 at Thu Feb  7 19:42:36 2019.
