 Entering Gaussian System, Link 0=g16
 Input=C27N3H41SO5-288.gjf
 Output=C27N3H41SO5-288.log
 Initial command:
 /home/xinyan/g16/l1.exe "/local/home/tmp/Gau-17181.inp" -scrdir="/local/home/tmp/"
 Entering Link 1 = /home/xinyan/g16/l1.exe PID=     17182.
  
 Copyright (c) 1988,1990,1992,1993,1995,1998,2003,2009,2016,
            Gaussian, Inc.  All Rights Reserved.
  
 This is part of the Gaussian(R) 16 program.  It is based on
 the Gaussian(R) 09 system (copyright 2009, Gaussian, Inc.),
 the Gaussian(R) 03 system (copyright 2003, Gaussian, Inc.),
 the Gaussian(R) 98 system (copyright 1998, Gaussian, Inc.),
 the Gaussian(R) 94 system (copyright 1995, Gaussian, Inc.),
 the Gaussian 92(TM) system (copyright 1992, Gaussian, Inc.),
 the Gaussian 90(TM) system (copyright 1990, Gaussian, Inc.),
 the Gaussian 88(TM) system (copyright 1988, Gaussian, Inc.),
 the Gaussian 86(TM) system (copyright 1986, Carnegie Mellon
 University), and the Gaussian 82(TM) system (copyright 1983,
 Carnegie Mellon University). Gaussian is a federally registered
 trademark of Gaussian, Inc.
  
 This software contains proprietary and confidential information,
 including trade secrets, belonging to Gaussian, Inc.
  
 This software is provided under written license and may be
 used, copied, transmitted, or stored only in accord with that
 written license.
  
 The following legend is applicable only to US Government
 contracts under FAR:
  
                    RESTRICTED RIGHTS LEGEND
  
 Use, reproduction and disclosure by the US Government is
 subject to restrictions as set forth in subparagraphs (a)
 and (c) of the Commercial Computer Software - Restricted
 Rights clause in FAR 52.227-19.
  
 Gaussian, Inc.
 340 Quinnipiac St., Bldg. 40, Wallingford CT 06492
  
  
 ---------------------------------------------------------------
 Warning -- This program may not be used in any manner that
 competes with the business of Gaussian, Inc. or will provide
 assistance to any competitor of Gaussian, Inc.  The licensee
 of this program is prohibited from giving any competitor of
 Gaussian, Inc. access to this program.  By using this program,
 the user acknowledges that Gaussian, Inc. is engaged in the
 business of creating and licensing software in the field of
 computational chemistry and represents and warrants to the
 licensee that it is not a competitor of Gaussian, Inc. and that
 it will not use this program in any manner prohibited above.
 ---------------------------------------------------------------
  

 Cite this work as:
 Gaussian 16, Revision A.03,
 M. J. Frisch, G. W. Trucks, H. B. Schlegel, G. E. Scuseria, 
 M. A. Robb, J. R. Cheeseman, G. Scalmani, V. Barone, 
 G. A. Petersson, H. Nakatsuji, X. Li, M. Caricato, A. V. Marenich, 
 J. Bloino, B. G. Janesko, R. Gomperts, B. Mennucci, H. P. Hratchian, 
 J. V. Ortiz, A. F. Izmaylov, J. L. Sonnenberg, D. Williams-Young, 
 F. Ding, F. Lipparini, F. Egidi, J. Goings, B. Peng, A. Petrone, 
 T. Henderson, D. Ranasinghe, V. G. Zakrzewski, J. Gao, N. Rega, 
 G. Zheng, W. Liang, M. Hada, M. Ehara, K. Toyota, R. Fukuda, 
 J. Hasegawa, M. Ishida, T. Nakajima, Y. Honda, O. Kitao, H. Nakai, 
 T. Vreven, K. Throssell, J. A. Montgomery, Jr., J. E. Peralta, 
 F. Ogliaro, M. J. Bearpark, J. J. Heyd, E. N. Brothers, K. N. Kudin, 
 V. N. Staroverov, T. A. Keith, R. Kobayashi, J. Normand, 
 K. Raghavachari, A. P. Rendell, J. C. Burant, S. S. Iyengar, 
 J. Tomasi, M. Cossi, J. M. Millam, M. Klene, C. Adamo, R. Cammi, 
 J. W. Ochterski, R. L. Martin, K. Morokuma, O. Farkas, 
 J. B. Foresman, and D. J. Fox, Gaussian, Inc., Wallingford CT, 2016.
 
 ******************************************
 Gaussian 16:  ES64L-G16RevA.03 25-Dec-2016
                 8-Feb-2019 
 ******************************************
 %nproc=24
 Will use up to   24 processors via shared memory.
 ------------------------------------------
 #p M062X/6-31G* em=gd3 force int=ultrafine
 ------------------------------------------
 1/10=7,30=1,38=1/1,3;
 2/12=2,17=6,18=5,40=1/2;
 3/5=1,6=6,7=1,11=2,25=1,30=1,71=1,74=-55,75=-5,124=31/1,2,3;
 4//1;
 5/5=2,38=5/2;
 6/7=2,8=2,9=2,10=2,28=1/1;
 7/29=1/1,2,3,16;
 1/10=7,30=1/3;
 99//99;
 Leave Link    1 at Fri Feb  8 00:30:23 2019, MaxMem=           0 cpu:               2.4 elap:               0.1
 (Enter /home/xinyan/g16/l101.exe)
 -----
 Title
 -----
 Symbolic Z-matrix:
 Charge =  0 Multiplicity = 1
 C                    -4.94864   0.24079  -0.26636 
 C                    -5.08855  -1.01441  -1.13299 
 C                    -3.73622  -1.41647  -1.7338 
 C                    -2.74377  -1.64755  -0.59891 
 C                    -2.54422  -0.35713   0.2462 
 C                    -3.90277   0.05059   0.83642 
 H                    -3.82873  -2.31718  -2.35151 
 H                    -5.47208  -1.8425   -0.52254 
 H                    -5.81253  -0.84818  -1.93749 
 H                    -4.64078   1.08127  -0.90427 
 H                    -5.91834   0.50617   0.16817 
 H                    -3.11849  -2.43924   0.05531 
 H                    -2.27093   0.42407  -0.47867 
 H                    -4.23188  -0.71636   1.54912 
 H                    -3.75916   0.98579   1.39107 
 H                    -3.39327  -0.59723  -2.3808 
 N                    -1.41083  -2.1065   -1.05383 
 C                    -0.7472   -1.44542  -2.02982 
 C                    -0.71755  -2.93914  -0.24196 
 C                     0.59995  -1.57471  -2.21056 
 H                    -1.34199  -0.78464  -2.6472 
 C                     0.63155  -3.11594  -0.35777 
 H                    -1.29053  -3.41591   0.54606 
 C                     1.36412  -2.35742  -1.30148 
 H                     1.07424  -1.02442  -3.01245 
 H                     1.12142  -3.75257   0.36558 
 N                     2.70393  -2.36463  -1.31889 
 C                     3.4605   -2.95265  -0.20655 
 H                     3.32151  -4.03731  -0.17377 
 H                     3.10443  -2.51743   0.73782 
 C                     3.47922  -1.3233   -2.00988 
 H                     3.71167  -1.64179  -3.03351 
 H                     2.90644  -0.39254  -2.03448 
 N                    -1.42045  -0.42727   1.15769 
 S                    -1.4567   -1.4034    2.3985 
 O                    -2.53096  -2.41967   2.33972 
 O                    -0.09724  -1.96638   2.62391 
 C                    -1.00383   2.71599   0.05642 
 C                    -0.33004   2.01927  -0.95234 
 C                    -0.86332   1.97078  -2.23857 
 C                    -2.08574   2.57858  -2.52571 
 C                    -2.77083   3.25077  -1.51564 
 C                    -2.22649   3.32031  -0.23533 
 H                     0.58425   1.48032  -0.71008 
 H                    -0.32243   1.44803  -3.02425 
 H                    -2.50238   2.53052  -3.52748 
 H                    -3.7291    3.71882  -1.7215 
 H                    -2.76298   3.8406    0.55531 
 O                     0.26912   1.636     1.8194 
 H                    -0.29436   0.85831   1.53345 
 C                     2.38014   0.20265   1.39148 
 O                     2.03546  -0.18332   0.28749 
 O                     2.09349  -0.43262   2.51541 
 H                     1.34537  -1.07825   2.38011 
 C                     3.2352    1.42726   1.61829 
 H                     2.80258   1.96523   2.4668 
 H                     4.23493   1.09216   1.93 
 C                    -0.4247    2.79369   1.454 
 H                    -1.23628   3.02887   2.16284 
 H                     0.29151   3.62626   1.50716 
 C                    -1.75696  -0.39248   3.84532 
 H                    -0.99399   0.3898    3.85238 
 H                    -2.75446   0.0423    3.75619 
 H                    -1.68463  -1.01818   4.73592 
 C                     3.31613   2.31789   0.38545 
 H                     3.69508   1.7363   -0.46378 
 H                     2.29981   2.62472   0.11407 
 C                     4.19105   3.54649   0.61414 
 H                     4.24605   4.16855  -0.28391 
 H                     3.7927    4.16406   1.42598 
 H                     5.21246   3.25952   0.8872 
 C                     4.90215  -2.5476   -0.50139 
 H                     5.51101  -2.52318   0.40457 
 H                     5.35662  -3.25412  -1.20353 
 C                     4.7387   -1.172    -1.15237 
 H                     4.5468   -0.41973  -0.38184 
 H                     5.60675  -0.86192  -1.73771 
 
 ITRead=  0  0  0  0  0  0  0  0  0  0  0  0  0  0  0  0  0  0  0  0
 ITRead=  0  0  0  0  0  0  0  0  0  0  0  0  0  0  0  0  0  0  0  0
 ITRead=  0  0  0  0  0  0  0  0  0  0  0  0  0  0  0  0  0  0  0  0
 ITRead=  0  0  0  0  0  0  0  0  0  0  0  0  0  0  0  0  0
 MicOpt= -1 -1 -1 -1 -1 -1 -1 -1 -1 -1 -1 -1 -1 -1 -1 -1 -1 -1 -1 -1
 MicOpt= -1 -1 -1 -1 -1 -1 -1 -1 -1 -1 -1 -1 -1 -1 -1 -1 -1 -1 -1 -1
 MicOpt= -1 -1 -1 -1 -1 -1 -1 -1 -1 -1 -1 -1 -1 -1 -1 -1 -1 -1 -1 -1
 MicOpt= -1 -1 -1 -1 -1 -1 -1 -1 -1 -1 -1 -1 -1 -1 -1 -1 -1
 NAtoms=     77 NQM=       77 NQMF=       0 NMMI=      0 NMMIF=      0
                NMic=       0 NMicF=      0.
                    Isotopes and Nuclear Properties:
 (Nuclear quadrupole moments (NQMom) in fm**2, nuclear magnetic moments (NMagM)
  in nuclear magnetons)

  Atom         1           2           3           4           5           6           7           8           9          10
 IAtWgt=          12          12          12          12          12          12           1           1           1           1
 AtmWgt=  12.0000000  12.0000000  12.0000000  12.0000000  12.0000000  12.0000000   1.0078250   1.0078250   1.0078250   1.0078250
 NucSpn=           0           0           0           0           0           0           1           1           1           1
 AtZEff=  -0.0000000  -0.0000000  -0.0000000  -0.0000000  -0.0000000  -0.0000000  -0.0000000  -0.0000000  -0.0000000  -0.0000000
 NQMom=    0.0000000   0.0000000   0.0000000   0.0000000   0.0000000   0.0000000   0.0000000   0.0000000   0.0000000   0.0000000
 NMagM=    0.0000000   0.0000000   0.0000000   0.0000000   0.0000000   0.0000000   2.7928460   2.7928460   2.7928460   2.7928460
 AtZNuc=   6.0000000   6.0000000   6.0000000   6.0000000   6.0000000   6.0000000   1.0000000   1.0000000   1.0000000   1.0000000

  Atom        11          12          13          14          15          16          17          18          19          20
 IAtWgt=           1           1           1           1           1           1          14          12          12          12
 AtmWgt=   1.0078250   1.0078250   1.0078250   1.0078250   1.0078250   1.0078250  14.0030740  12.0000000  12.0000000  12.0000000
 NucSpn=           1           1           1           1           1           1           2           0           0           0
 AtZEff=  -0.0000000  -0.0000000  -0.0000000  -0.0000000  -0.0000000  -0.0000000  -0.0000000  -0.0000000  -0.0000000  -0.0000000
 NQMom=    0.0000000   0.0000000   0.0000000   0.0000000   0.0000000   0.0000000   2.0440000   0.0000000   0.0000000   0.0000000
 NMagM=    2.7928460   2.7928460   2.7928460   2.7928460   2.7928460   2.7928460   0.4037610   0.0000000   0.0000000   0.0000000
 AtZNuc=   1.0000000   1.0000000   1.0000000   1.0000000   1.0000000   1.0000000   7.0000000   6.0000000   6.0000000   6.0000000

  Atom        21          22          23          24          25          26          27          28          29          30
 IAtWgt=           1          12           1          12           1           1          14          12           1           1
 AtmWgt=   1.0078250  12.0000000   1.0078250  12.0000000   1.0078250   1.0078250  14.0030740  12.0000000   1.0078250   1.0078250
 NucSpn=           1           0           1           0           1           1           2           0           1           1
 AtZEff=  -0.0000000  -0.0000000  -0.0000000  -0.0000000  -0.0000000  -0.0000000  -0.0000000  -0.0000000  -0.0000000  -0.0000000
 NQMom=    0.0000000   0.0000000   0.0000000   0.0000000   0.0000000   0.0000000   2.0440000   0.0000000   0.0000000   0.0000000
 NMagM=    2.7928460   0.0000000   2.7928460   0.0000000   2.7928460   2.7928460   0.4037610   0.0000000   2.7928460   2.7928460
 AtZNuc=   1.0000000   6.0000000   1.0000000   6.0000000   1.0000000   1.0000000   7.0000000   6.0000000   1.0000000   1.0000000

  Atom        31          32          33          34          35          36          37          38          39          40
 IAtWgt=          12           1           1          14          32          16          16          12          12          12
 AtmWgt=  12.0000000   1.0078250   1.0078250  14.0030740  31.9720718  15.9949146  15.9949146  12.0000000  12.0000000  12.0000000
 NucSpn=           0           1           1           2           0           0           0           0           0           0
 AtZEff=  -0.0000000  -0.0000000  -0.0000000  -0.0000000  -0.0000000  -0.0000000  -0.0000000  -0.0000000  -0.0000000  -0.0000000
 NQMom=    0.0000000   0.0000000   0.0000000   2.0440000   0.0000000   0.0000000   0.0000000   0.0000000   0.0000000   0.0000000
 NMagM=    0.0000000   2.7928460   2.7928460   0.4037610   0.0000000   0.0000000   0.0000000   0.0000000   0.0000000   0.0000000
 AtZNuc=   6.0000000   1.0000000   1.0000000   7.0000000  16.0000000   8.0000000   8.0000000   6.0000000   6.0000000   6.0000000

  Atom        41          42          43          44          45          46          47          48          49          50
 IAtWgt=          12          12          12           1           1           1           1           1          16           1
 AtmWgt=  12.0000000  12.0000000  12.0000000   1.0078250   1.0078250   1.0078250   1.0078250   1.0078250  15.9949146   1.0078250
 NucSpn=           0           0           0           1           1           1           1           1           0           1
 AtZEff=  -0.0000000  -0.0000000  -0.0000000  -0.0000000  -0.0000000  -0.0000000  -0.0000000  -0.0000000  -0.0000000  -0.0000000
 NQMom=    0.0000000   0.0000000   0.0000000   0.0000000   0.0000000   0.0000000   0.0000000   0.0000000   0.0000000   0.0000000
 NMagM=    0.0000000   0.0000000   0.0000000   2.7928460   2.7928460   2.7928460   2.7928460   2.7928460   0.0000000   2.7928460
 AtZNuc=   6.0000000   6.0000000   6.0000000   1.0000000   1.0000000   1.0000000   1.0000000   1.0000000   8.0000000   1.0000000

  Atom        51          52          53          54          55          56          57          58          59          60
 IAtWgt=          12          16          16           1          12           1           1          12           1           1
 AtmWgt=  12.0000000  15.9949146  15.9949146   1.0078250  12.0000000   1.0078250   1.0078250  12.0000000   1.0078250   1.0078250
 NucSpn=           0           0           0           1           0           1           1           0           1           1
 AtZEff=  -0.0000000  -0.0000000  -0.0000000  -0.0000000  -0.0000000  -0.0000000  -0.0000000  -0.0000000  -0.0000000  -0.0000000
 NQMom=    0.0000000   0.0000000   0.0000000   0.0000000   0.0000000   0.0000000   0.0000000   0.0000000   0.0000000   0.0000000
 NMagM=    0.0000000   0.0000000   0.0000000   2.7928460   0.0000000   2.7928460   2.7928460   0.0000000   2.7928460   2.7928460
 AtZNuc=   6.0000000   8.0000000   8.0000000   1.0000000   6.0000000   1.0000000   1.0000000   6.0000000   1.0000000   1.0000000

  Atom        61          62          63          64          65          66          67          68          69          70
 IAtWgt=          12           1           1           1          12           1           1          12           1           1
 AtmWgt=  12.0000000   1.0078250   1.0078250   1.0078250  12.0000000   1.0078250   1.0078250  12.0000000   1.0078250   1.0078250
 NucSpn=           0           1           1           1           0           1           1           0           1           1
 AtZEff=  -0.0000000  -0.0000000  -0.0000000  -0.0000000  -0.0000000  -0.0000000  -0.0000000  -0.0000000  -0.0000000  -0.0000000
 NQMom=    0.0000000   0.0000000   0.0000000   0.0000000   0.0000000   0.0000000   0.0000000   0.0000000   0.0000000   0.0000000
 NMagM=    0.0000000   2.7928460   2.7928460   2.7928460   0.0000000   2.7928460   2.7928460   0.0000000   2.7928460   2.7928460
 AtZNuc=   6.0000000   1.0000000   1.0000000   1.0000000   6.0000000   1.0000000   1.0000000   6.0000000   1.0000000   1.0000000

  Atom        71          72          73          74          75          76          77
 IAtWgt=           1          12           1           1          12           1           1
 AtmWgt=   1.0078250  12.0000000   1.0078250   1.0078250  12.0000000   1.0078250   1.0078250
 NucSpn=           1           0           1           1           0           1           1
 AtZEff=  -0.0000000  -0.0000000  -0.0000000  -0.0000000  -0.0000000  -0.0000000  -0.0000000
 NQMom=    0.0000000   0.0000000   0.0000000   0.0000000   0.0000000   0.0000000   0.0000000
 NMagM=    2.7928460   0.0000000   2.7928460   2.7928460   0.0000000   2.7928460   2.7928460
 AtZNuc=   1.0000000   6.0000000   1.0000000   1.0000000   6.0000000   1.0000000   1.0000000
 Leave Link  101 at Fri Feb  8 00:30:23 2019, MaxMem=   104857600 cpu:               5.7 elap:               0.3
 (Enter /home/xinyan/g16/l103.exe)

 GradGradGradGradGradGradGradGradGradGradGradGradGradGradGradGradGradGrad
 Berny optimization.
 Initialization pass.
 Trust Radius=3.00D-01 FncErr=1.00D-07 GrdErr=1.00D-07 EigMax=2.50D+02 EigMin=1.00D-04
 Number of steps in this run=      2 maximum allowed number of steps=      2.
 GradGradGradGradGradGradGradGradGradGradGradGradGradGradGradGradGradGrad

 Leave Link  103 at Fri Feb  8 00:30:23 2019, MaxMem=   104857600 cpu:               1.6 elap:               0.1
 (Enter /home/xinyan/g16/l202.exe)
 Stoichiometry    C27H41N3O5S
 Framework group  C1[X(C27H41N3O5S)]
 Deg. of freedom   225
 Full point group                 C1      NOp   1
 Largest Abelian subgroup         C1      NOp   1
 Largest concise Abelian subgroup C1      NOp   1
                         Standard orientation:                         
 ---------------------------------------------------------------------
 Center     Atomic      Atomic             Coordinates (Angstroms)
 Number     Number       Type             X           Y           Z
 ---------------------------------------------------------------------
      1          6           0       -4.868980    0.070721   -0.426010
      2          6           0       -4.908044   -1.214550   -1.258297
      3          6           0       -3.527259   -1.524711   -1.848766
      4          6           0       -2.521464   -1.646015   -0.708594
      5          6           0       -2.425691   -0.321521    0.101195
      6          6           0       -3.813107   -0.006497    0.680928
      7          1           0       -3.547435   -2.446265   -2.441838
      8          1           0       -5.226003   -2.053537   -0.625460
      9          1           0       -5.641612   -1.127761   -2.066595
     10          1           0       -4.627391    0.915341   -1.086590
     11          1           0       -5.857282    0.270384    0.001724
     12          1           0       -2.833581   -2.446851   -0.032993
     13          1           0       -2.213749    0.458948   -0.644691
     14          1           0       -4.081800   -0.777501    1.414293
     15          1           0       -3.744612    0.951756    1.210002
     16          1           0       -3.248999   -0.698734   -2.517877
     17          7           0       -1.155750   -2.010458   -1.151677
     18          6           0       -0.544810   -1.325666   -2.145559
     19          6           0       -0.400216   -2.763559   -0.317971
     20          6           0        0.808625   -1.353072   -2.323487
     21          1           0       -1.188908   -0.730802   -2.780254
     22          6           0        0.958810   -2.836402   -0.429708
     23          1           0       -0.935034   -3.262606    0.482974
     24          6           0        1.630735   -2.048198   -1.393996
     25          1           0        1.239282   -0.788925   -3.140230
     26          1           0        1.496242   -3.412620    0.310322
     27          7           0        2.966962   -1.950117   -1.411951
     28          6           0        3.765813   -2.446342   -0.284536
     29          1           0        3.712789   -3.537306   -0.222355
     30          1           0        3.375021   -2.015236    0.647916
     31          6           0        3.658760   -0.869892   -2.131283
     32          1           0        3.917232   -1.196572   -3.146054
     33          1           0        3.014364    0.011757   -2.180728
     34          7           0       -1.301331   -0.278116    1.013622
     35         16           0       -1.262407   -1.220196    2.280399
     36          8           0       -2.253036   -2.319291    2.249724
     37          8           0        0.136878   -1.667841    2.520195
     38          6           0       -1.132288    2.857329   -0.172489
     39          6           0       -0.404032    2.188969   -1.162412
     40          6           0       -0.929791    2.063828   -2.446563
     41          6           0       -2.195903    2.565284   -2.749355
     42          6           0       -2.933490    3.208343   -1.757453
     43          6           0       -2.398357    3.355174   -0.479796
     44          1           0        0.549549    1.730594   -0.906173
     45          1           0       -0.348100    1.564368   -3.218118
     46          1           0       -2.605869    2.457458   -3.749227
     47          1           0       -3.925377    3.593578   -1.975363
     48          1           0       -2.975476    3.852664    0.296782
     49          8           0        0.219123    1.929172    1.618346
     50          1           0       -0.280785    1.102001    1.353848
     51          6           0        2.437332    0.655858    1.228173
     52          8           0        2.125925    0.214218    0.135218
     53          8           0        2.199926    0.030532    2.369033
     54          1           0        1.505296   -0.675542    2.251661
     55          6           0        3.192739    1.949806    1.421304
     56          1           0        2.717680    2.474674    2.255194
     57          1           0        4.215300    1.703188    1.741406
     58          6           0       -0.563303    3.018205    1.222156
     59          1           0       -1.392028    3.207659    1.924827
     60          1           0        0.084896    3.905831    1.252380
     61          6           0       -1.643782   -0.197423    3.699515
     62          1           0       -0.944928    0.642534    3.684990
     63          1           0       -2.672336    0.154714    3.599214
     64          1           0       -1.523714   -0.791183    4.606672
     65          6           0        3.205090    2.810425    0.164782
     66          1           0        3.630089    2.237834   -0.668619
     67          1           0        2.168158    3.028651   -0.114231
     68          6           0        3.979978    4.109967    0.359672
     69          1           0        3.987141    4.709947   -0.554904
     70          1           0        3.532859    4.715872    1.154734
     71          1           0        5.020414    3.911979    0.639825
     72          6           0        5.171472   -1.936893   -0.591025
     73          1           0        5.775075   -1.840043    0.313604
     74          1           0        5.681381   -2.624047   -1.274053
     75          6           0        4.901019   -0.596566   -1.278880
     76          1           0        4.649143    0.158746   -0.528871
     77          1           0        5.742819   -0.234869   -1.872876
 ---------------------------------------------------------------------
 Rotational constants (GHZ):           0.1437801           0.0964019           0.0862191
 Leave Link  202 at Fri Feb  8 00:30:23 2019, MaxMem=   104857600 cpu:               2.5 elap:               0.1
 (Enter /home/xinyan/g16/l301.exe)
 Standard basis: 6-31G(d) (6D, 7F)
 Ernie: Thresh=  0.10000D-02 Tol=  0.10000D-05 Strict=F.
 There are   626 symmetry adapted cartesian basis functions of A   symmetry.
 There are   626 symmetry adapted basis functions of A   symmetry.
   626 basis functions,  1196 primitive gaussians,   626 cartesian basis functions
   140 alpha electrons      140 beta electrons
       nuclear repulsion energy      4885.9155603635 Hartrees.
 IExCor= 4336 DFT=T Ex+Corr=M062X ExCW=0 ScaHFX=  0.540000
 ScaDFX=  1.000000  1.000000  1.000000  1.000000 ScalE2=  1.000000  1.000000
 IRadAn=      5 IRanWt=     -1 IRanGd=            0 ICorTp=0 IEmpDi=131
 NAtoms=   77 NActive=   77 NUniq=   77 SFac= 1.00D+00 NAtFMM=   60 NAOKFM=T Big=T
 Integral buffers will be    131072 words long.
 Raffenetti 2 integral format.
 Two-electron integral symmetry is turned on.
 R6Disp:  Grimme-D3 Dispersion energy=       -0.0106070610 Hartrees.
 Nuclear repulsion after empirical dispersion term =     4885.9049533025 Hartrees.
 Leave Link  301 at Fri Feb  8 00:30:24 2019, MaxMem=   104857600 cpu:               3.0 elap:               0.2
 (Enter /home/xinyan/g16/l302.exe)
 NPDir=0 NMtPBC=     1 NCelOv=     1 NCel=       1 NClECP=     1 NCelD=      1
         NCelK=      1 NCelE2=     1 NClLst=     1 CellRange=     0.0.
 One-electron integrals computed using PRISM.
 One-electron integral symmetry used in STVInt
 PrsmSu:  requested number of processors reduced to:  23 ShMem   1 Linda.
 NBasis=   626 RedAO= T EigKep=  4.36D-04  NBF=   626
 NBsUse=   626 1.00D-06 EigRej= -1.00D+00 NBFU=   626
 Precomputing XC quadrature grid using
 IXCGrd= 4 IRadAn=           5 IRanWt=          -1 IRanGd=           0 AccXCQ= 0.00D+00.
 Generated NRdTot=       0 NPtTot=           0 NUsed=           0 NTot=          32
 NSgBfM=   614   614   614   614   614 MxSgAt=    77 MxSgA2=    77.
 Leave Link  302 at Fri Feb  8 00:30:25 2019, MaxMem=   104857600 cpu:              32.8 elap:               1.4
 (Enter /home/xinyan/g16/l303.exe)
 DipDrv:  MaxL=1.
 Leave Link  303 at Fri Feb  8 00:30:25 2019, MaxMem=   104857600 cpu:               4.6 elap:               0.2
 (Enter /home/xinyan/g16/l401.exe)
 ExpMin= 1.17D-01 ExpMax= 2.19D+04 ExpMxC= 3.30D+03 IAcc=3 IRadAn=         5 AccDes= 0.00D+00
 Harris functional with IExCor= 1009 and IRadAn=       5 diagonalized for initial guess.
 HarFok:  IExCor= 1009 AccDes= 0.00D+00 IRadAn=         5 IDoV= 1 UseB2=F ITyADJ=14
 ICtDFT=  3500011 ScaDFX=  1.000000  1.000000  1.000000  1.000000
 FoFCou: FMM=F IPFlag=           0 FMFlag=      100000 FMFlg1=        2001
         NFxFlg=           0 DoJE=T BraDBF=F KetDBF=T FulRan=T
         wScrn=  0.000000 ICntrl=       500 IOpCl=  0 I1Cent=   200000004 NGrid=           0
         NMat0=    1 NMatS0=      1 NMatT0=    0 NMatD0=    1 NMtDS0=    0 NMtDT0=    0
 Petite list used in FoFCou.
 Harris En= -1990.55233255867    
 JPrj=0 DoOrth=F DoCkMO=F.
 Leave Link  401 at Fri Feb  8 00:30:29 2019, MaxMem=   104857600 cpu:              97.5 elap:               4.1
 (Enter /home/xinyan/g16/l502.exe)
 Integral symmetry usage will be decided dynamically.
 Closed shell SCF:
 Using DIIS extrapolation, IDIIS=  1040.
 NGot=   104857600 LenX=   104051656 LenY=   103659154
 Requested convergence on RMS density matrix=1.00D-08 within 128 cycles.
 Requested convergence on MAX density matrix=1.00D-06.
 Requested convergence on             energy=1.00D-06.
 No special actions if energy rises.
 Fock matrices will be formed incrementally for  20 cycles.
 Integral accuracy reduced to 1.0D-05 until final iterations.

 Cycle   1  Pass 0  IDiag  1:
 FoFJK:  IHMeth= 1 ICntrl=       0 DoSepK=F KAlg= 0 I1Cent=           0 FoldK=F
 IRaf= 990000000 NMat=       1 IRICut=       1 DoRegI=T DoRafI=F ISym2E= 0 IDoP0=0 IntGTp=1.
 FoFCou: FMM=T IPFlag=           0 FMFlag=      100000 FMFlg1=        2001
         NFxFlg=           0 DoJE=F BraDBF=F KetDBF=F FulRan=T
         wScrn=  0.000000 ICntrl=         0 IOpCl=  0 I1Cent=           0 NGrid=           0
         NMat0=    1 NMatS0=      1 NMatT0=    0 NMatD0=    1 NMtDS0=    0 NMtDT0=    0
 Symmetry not used in FoFCou.
 FMM levels:  10  Number of levels for PrismC:   9
 E= -1990.34971417890    
 DIIS: error= 2.82D-02 at cycle   1 NSaved=   1.
 NSaved= 1 IEnMin= 1 EnMin= -1990.34971417890     IErMin= 1 ErrMin= 2.82D-02
 ErrMax= 2.82D-02  0.00D+00 EMaxC= 1.00D-01 BMatC= 1.22D+00 BMatP= 1.22D+00
 IDIUse=3 WtCom= 7.18D-01 WtEn= 2.82D-01
 Coeff-Com:  0.100D+01
 Coeff-En:   0.100D+01
 Coeff:      0.100D+01
 Gap=     0.376 Goal=   None    Shift=    0.000
 GapD=    0.376 DampG=1.000 DampE=0.500 DampFc=0.5000 IDamp=-1.
 Damping current iteration by 5.00D-01
 RMSDP=3.20D-03 MaxDP=3.20D-01              OVMax= 1.41D-01

 Cycle   2  Pass 0  IDiag  1:
 RMSU=  1.59D-03    CP:  9.87D-01
 E= -1990.86322482791     Delta-E=       -0.513510649012 Rises=F Damp=T
 DIIS: error= 1.06D-02 at cycle   2 NSaved=   2.
 NSaved= 2 IEnMin= 2 EnMin= -1990.86322482791     IErMin= 2 ErrMin= 1.06D-02
 ErrMax= 1.06D-02  0.00D+00 EMaxC= 1.00D-01 BMatC= 8.80D-02 BMatP= 1.22D+00
 IDIUse=3 WtCom= 8.94D-01 WtEn= 1.06D-01
 Coeff-Com: -0.441D-01 0.104D+01
 Coeff-En:   0.000D+00 0.100D+01
 Coeff:     -0.395D-01 0.104D+01
 Gap=     0.253 Goal=   None    Shift=    0.000
 RMSDP=7.74D-04 MaxDP=7.50D-02 DE=-5.14D-01 OVMax= 9.35D-02

 Cycle   3  Pass 0  IDiag  1:
 RMSU=  7.69D-04    CP:  9.81D-01  1.01D+00
 E= -1991.35892264671     Delta-E=       -0.495697818807 Rises=F Damp=F
 DIIS: error= 6.01D-03 at cycle   3 NSaved=   3.
 NSaved= 3 IEnMin= 3 EnMin= -1991.35892264671     IErMin= 3 ErrMin= 6.01D-03
 ErrMax= 6.01D-03  0.00D+00 EMaxC= 1.00D-01 BMatC= 3.68D-02 BMatP= 8.80D-02
 IDIUse=3 WtCom= 9.40D-01 WtEn= 6.01D-02
 Coeff-Com: -0.708D-01 0.406D+00 0.665D+00
 Coeff-En:   0.000D+00 0.000D+00 0.100D+01
 Coeff:     -0.665D-01 0.382D+00 0.685D+00
 Gap=     0.252 Goal=   None    Shift=    0.000
 RMSDP=4.19D-04 MaxDP=3.99D-02 DE=-4.96D-01 OVMax= 4.19D-02

 Cycle   4  Pass 0  IDiag  1:
 RMSU=  2.86D-04    CP:  9.83D-01  1.09D+00  6.37D-01
 E= -1991.38031658163     Delta-E=       -0.021393934914 Rises=F Damp=F
 DIIS: error= 3.40D-03 at cycle   4 NSaved=   4.
 NSaved= 4 IEnMin= 4 EnMin= -1991.38031658163     IErMin= 4 ErrMin= 3.40D-03
 ErrMax= 3.40D-03  0.00D+00 EMaxC= 1.00D-01 BMatC= 1.04D-02 BMatP= 3.68D-02
 IDIUse=3 WtCom= 9.66D-01 WtEn= 3.40D-02
 Coeff-Com: -0.264D-01 0.867D-01 0.374D+00 0.565D+00
 Coeff-En:   0.000D+00 0.000D+00 0.225D+00 0.775D+00
 Coeff:     -0.255D-01 0.838D-01 0.369D+00 0.573D+00
 Gap=     0.242 Goal=   None    Shift=    0.000
 RMSDP=1.77D-04 MaxDP=1.22D-02 DE=-2.14D-02 OVMax= 1.98D-02

 Cycle   5  Pass 0  IDiag  1:
 RMSU=  8.28D-05    CP:  9.82D-01  1.08D+00  7.49D-01  5.47D-01
 E= -1991.38861692474     Delta-E=       -0.008300343115 Rises=F Damp=F
 DIIS: error= 7.30D-04 at cycle   5 NSaved=   5.
 NSaved= 5 IEnMin= 5 EnMin= -1991.38861692474     IErMin= 5 ErrMin= 7.30D-04
 ErrMax= 7.30D-04  0.00D+00 EMaxC= 1.00D-01 BMatC= 5.71D-04 BMatP= 1.04D-02
 IDIUse=3 WtCom= 9.93D-01 WtEn= 7.30D-03
 Coeff-Com: -0.829D-02 0.198D-01 0.144D+00 0.288D+00 0.557D+00
 Coeff-En:   0.000D+00 0.000D+00 0.000D+00 0.000D+00 0.100D+01
 Coeff:     -0.823D-02 0.196D-01 0.143D+00 0.286D+00 0.560D+00
 Gap=     0.244 Goal=   None    Shift=    0.000
 RMSDP=4.77D-05 MaxDP=3.74D-03 DE=-8.30D-03 OVMax= 5.69D-03

 Cycle   6  Pass 0  IDiag  1:
 RMSU=  2.39D-05    CP:  9.82D-01  1.08D+00  7.53D-01  6.19D-01  5.69D-01
 E= -1991.38910731184     Delta-E=       -0.000490387093 Rises=F Damp=F
 DIIS: error= 1.99D-04 at cycle   6 NSaved=   6.
 NSaved= 6 IEnMin= 6 EnMin= -1991.38910731184     IErMin= 6 ErrMin= 1.99D-04
 ErrMax= 1.99D-04  0.00D+00 EMaxC= 1.00D-01 BMatC= 3.76D-05 BMatP= 5.71D-04
 IDIUse=3 WtCom= 9.98D-01 WtEn= 1.99D-03
 Coeff-Com: -0.124D-02 0.117D-02 0.305D-01 0.768D-01 0.260D+00 0.633D+00
 Coeff-En:   0.000D+00 0.000D+00 0.000D+00 0.000D+00 0.000D+00 0.100D+01
 Coeff:     -0.124D-02 0.117D-02 0.304D-01 0.767D-01 0.260D+00 0.633D+00
 Gap=     0.244 Goal=   None    Shift=    0.000
 RMSDP=1.22D-05 MaxDP=6.63D-04 DE=-4.90D-04 OVMax= 1.85D-03

 Cycle   7  Pass 0  IDiag  1:
 RMSU=  7.86D-06    CP:  9.82D-01  1.08D+00  7.55D-01  6.19D-01  6.42D-01
                    CP:  7.17D-01
 E= -1991.38914448287     Delta-E=       -0.000037171034 Rises=F Damp=F
 DIIS: error= 3.92D-05 at cycle   7 NSaved=   7.
 NSaved= 7 IEnMin= 7 EnMin= -1991.38914448287     IErMin= 7 ErrMin= 3.92D-05
 ErrMax= 3.92D-05  0.00D+00 EMaxC= 1.00D-01 BMatC= 2.90D-06 BMatP= 3.76D-05
 IDIUse=1 WtCom= 1.00D+00 WtEn= 0.00D+00
 Coeff-Com:  0.287D-03-0.144D-02-0.756D-03 0.588D-02 0.622D-01 0.268D+00
 Coeff-Com:  0.666D+00
 Coeff:      0.287D-03-0.144D-02-0.756D-03 0.588D-02 0.622D-01 0.268D+00
 Coeff:      0.666D+00
 Gap=     0.244 Goal=   None    Shift=    0.000
 RMSDP=4.14D-06 MaxDP=2.35D-04 DE=-3.72D-05 OVMax= 3.41D-04

 Initial convergence to 1.0D-05 achieved.  Increase integral accuracy.
 Cycle   8  Pass 1  IDiag  1:
 E= -1991.38933199991     Delta-E=       -0.000187517040 Rises=F Damp=F
 DIIS: error= 1.42D-04 at cycle   1 NSaved=   1.
 NSaved= 1 IEnMin= 1 EnMin= -1991.38933199991     IErMin= 1 ErrMin= 1.42D-04
 ErrMax= 1.42D-04  0.00D+00 EMaxC= 1.00D-01 BMatC= 1.16D-05 BMatP= 1.16D-05
 IDIUse=3 WtCom= 9.99D-01 WtEn= 1.42D-03
 Coeff-Com:  0.100D+01
 Coeff-En:   0.100D+01
 Coeff:      0.100D+01
 Gap=     0.244 Goal=   None    Shift=    0.000
 RMSDP=4.14D-06 MaxDP=2.35D-04 DE=-1.88D-04 OVMax= 5.39D-04

 Cycle   9  Pass 1  IDiag  1:
 RMSU=  6.28D-05    CP:  1.00D+00
 E= -1991.38934266284     Delta-E=       -0.000010662931 Rises=F Damp=F
 DIIS: error= 2.97D-05 at cycle   2 NSaved=   2.
 NSaved= 2 IEnMin= 2 EnMin= -1991.38934266284     IErMin= 2 ErrMin= 2.97D-05
 ErrMax= 2.97D-05  0.00D+00 EMaxC= 1.00D-01 BMatC= 8.87D-07 BMatP= 1.16D-05
 IDIUse=1 WtCom= 1.00D+00 WtEn= 0.00D+00
 Coeff-Com:  0.848D-01 0.915D+00
 Coeff:      0.848D-01 0.915D+00
 Gap=     0.244 Goal=   None    Shift=    0.000
 RMSDP=3.98D-06 MaxDP=2.59D-04 DE=-1.07D-05 OVMax= 4.54D-04

 Cycle  10  Pass 1  IDiag  1:
 RMSU=  3.55D-06    CP:  1.00D+00  1.03D+00
 E= -1991.38934216099     Delta-E=        0.000000501854 Rises=F Damp=F
 DIIS: error= 4.42D-05 at cycle   3 NSaved=   3.
 NSaved= 3 IEnMin= 2 EnMin= -1991.38934266284     IErMin= 2 ErrMin= 2.97D-05
 ErrMax= 4.42D-05  0.00D+00 EMaxC= 1.00D-01 BMatC= 1.46D-06 BMatP= 8.87D-07
 IDIUse=1 WtCom= 1.00D+00 WtEn= 0.00D+00
 Coeff-Com: -0.161D-01 0.568D+00 0.448D+00
 Coeff:     -0.161D-01 0.568D+00 0.448D+00
 Gap=     0.244 Goal=   None    Shift=    0.000
 RMSDP=1.97D-06 MaxDP=1.59D-04 DE= 5.02D-07 OVMax= 3.18D-04

 Cycle  11  Pass 1  IDiag  1:
 RMSU=  6.03D-07    CP:  1.00D+00  1.03D+00  4.79D-01
 E= -1991.38934344021     Delta-E=       -0.000001279224 Rises=F Damp=F
 DIIS: error= 3.92D-06 at cycle   4 NSaved=   4.
 NSaved= 4 IEnMin= 4 EnMin= -1991.38934344021     IErMin= 4 ErrMin= 3.92D-06
 ErrMax= 3.92D-06  0.00D+00 EMaxC= 1.00D-01 BMatC= 9.85D-09 BMatP= 8.87D-07
 IDIUse=1 WtCom= 1.00D+00 WtEn= 0.00D+00
 Coeff-Com: -0.859D-02 0.248D+00 0.211D+00 0.549D+00
 Coeff:     -0.859D-02 0.248D+00 0.211D+00 0.549D+00
 Gap=     0.244 Goal=   None    Shift=    0.000
 RMSDP=2.04D-07 MaxDP=1.09D-05 DE=-1.28D-06 OVMax= 1.91D-05

 Cycle  12  Pass 1  IDiag  1:
 RMSU=  1.83D-07    CP:  1.00D+00  1.03D+00  4.95D-01  8.89D-01
 E= -1991.38934344918     Delta-E=       -0.000000008966 Rises=F Damp=F
 DIIS: error= 1.21D-06 at cycle   5 NSaved=   5.
 NSaved= 5 IEnMin= 5 EnMin= -1991.38934344918     IErMin= 5 ErrMin= 1.21D-06
 ErrMax= 1.21D-06  0.00D+00 EMaxC= 1.00D-01 BMatC= 8.94D-10 BMatP= 9.85D-09
 IDIUse=1 WtCom= 1.00D+00 WtEn= 0.00D+00
 Coeff-Com: -0.546D-03-0.197D-02 0.939D-02 0.202D+00 0.791D+00
 Coeff:     -0.546D-03-0.197D-02 0.939D-02 0.202D+00 0.791D+00
 Gap=     0.244 Goal=   None    Shift=    0.000
 RMSDP=8.83D-08 MaxDP=4.08D-06 DE=-8.97D-09 OVMax= 1.34D-05

 Cycle  13  Pass 1  IDiag  1:
 RMSU=  6.63D-08    CP:  1.00D+00  1.03D+00  4.99D-01  9.74D-01  8.90D-01
 E= -1991.38934344992     Delta-E=       -0.000000000746 Rises=F Damp=F
 DIIS: error= 5.62D-07 at cycle   6 NSaved=   6.
 NSaved= 6 IEnMin= 6 EnMin= -1991.38934344992     IErMin= 6 ErrMin= 5.62D-07
 ErrMax= 5.62D-07  0.00D+00 EMaxC= 1.00D-01 BMatC= 2.80D-10 BMatP= 8.94D-10
 IDIUse=1 WtCom= 1.00D+00 WtEn= 0.00D+00
 Coeff-Com:  0.996D-03-0.382D-01-0.248D-01 0.241D-01 0.437D+00 0.600D+00
 Coeff:      0.996D-03-0.382D-01-0.248D-01 0.241D-01 0.437D+00 0.600D+00
 Gap=     0.244 Goal=   None    Shift=    0.000
 RMSDP=3.43D-08 MaxDP=3.01D-06 DE=-7.46D-10 OVMax= 5.17D-06

 Cycle  14  Pass 1  IDiag  1:
 RMSU=  2.45D-08    CP:  1.00D+00  1.03D+00  5.02D-01  9.88D-01  9.75D-01
                    CP:  8.09D-01
 E= -1991.38934345023     Delta-E=       -0.000000000301 Rises=F Damp=F
 DIIS: error= 1.97D-07 at cycle   7 NSaved=   7.
 NSaved= 7 IEnMin= 7 EnMin= -1991.38934345023     IErMin= 7 ErrMin= 1.97D-07
 ErrMax= 1.97D-07  0.00D+00 EMaxC= 1.00D-01 BMatC= 1.76D-11 BMatP= 2.80D-10
 IDIUse=1 WtCom= 1.00D+00 WtEn= 0.00D+00
 Coeff-Com:  0.450D-03-0.152D-01-0.101D-01-0.123D-01 0.980D-01 0.236D+00
 Coeff-Com:  0.704D+00
 Coeff:      0.450D-03-0.152D-01-0.101D-01-0.123D-01 0.980D-01 0.236D+00
 Coeff:      0.704D+00
 Gap=     0.244 Goal=   None    Shift=    0.000
 RMSDP=1.08D-08 MaxDP=8.01D-07 DE=-3.01D-10 OVMax= 1.38D-06

 Cycle  15  Pass 1  IDiag  1:
 RMSU=  8.27D-09    CP:  1.00D+00  1.03D+00  5.03D-01  9.91D-01  9.89D-01
                    CP:  8.87D-01  1.07D+00
 E= -1991.38934345022     Delta-E=        0.000000000006 Rises=F Damp=F
 DIIS: error= 4.97D-08 at cycle   8 NSaved=   8.
 NSaved= 8 IEnMin= 7 EnMin= -1991.38934345023     IErMin= 8 ErrMin= 4.97D-08
 ErrMax= 4.97D-08  0.00D+00 EMaxC= 1.00D-01 BMatC= 2.76D-12 BMatP= 1.76D-11
 IDIUse=1 WtCom= 1.00D+00 WtEn= 0.00D+00
 Coeff-Com: -0.323D-04 0.203D-02 0.163D-02-0.108D-01-0.513D-01-0.264D-01
 Coeff-Com:  0.284D+00 0.801D+00
 Coeff:     -0.323D-04 0.203D-02 0.163D-02-0.108D-01-0.513D-01-0.264D-01
 Coeff:      0.284D+00 0.801D+00
 Gap=     0.244 Goal=   None    Shift=    0.000
 RMSDP=4.73D-09 MaxDP=4.07D-07 DE= 6.37D-12 OVMax= 7.82D-07

 SCF Done:  E(RM062X) =  -1991.38934345     A.U. after   15 cycles
            NFock= 15  Conv=0.47D-08     -V/T= 2.0076
 KE= 1.976466436887D+03 PE=-1.442435968979D+04 EE= 5.570598956151D+03
 Leave Link  502 at Fri Feb  8 00:33:02 2019, MaxMem=   104857600 cpu:            3655.6 elap:             152.6
 (Enter /home/xinyan/g16/l601.exe)
 Copying SCF densities to generalized density rwf, IOpCl= 0 IROHF=0.

 **********************************************************************

            Population analysis using the SCF density.

 **********************************************************************

 Orbital symmetries:
       Occupied  (A) (A) (A) (A) (A) (A) (A) (A) (A) (A) (A) (A)
                 (A) (A) (A) (A) (A) (A) (A) (A) (A) (A) (A) (A)
                 (A) (A) (A) (A) (A) (A) (A) (A) (A) (A) (A) (A)
                 (A) (A) (A) (A) (A) (A) (A) (A) (A) (A) (A) (A)
                 (A) (A) (A) (A) (A) (A) (A) (A) (A) (A) (A) (A)
                 (A) (A) (A) (A) (A) (A) (A) (A) (A) (A) (A) (A)
                 (A) (A) (A) (A) (A) (A) (A) (A) (A) (A) (A) (A)
                 (A) (A) (A) (A) (A) (A) (A) (A) (A) (A) (A) (A)
                 (A) (A) (A) (A) (A) (A) (A) (A) (A) (A) (A) (A)
                 (A) (A) (A) (A) (A) (A) (A) (A) (A) (A) (A) (A)
                 (A) (A) (A) (A) (A) (A) (A) (A) (A) (A) (A) (A)
                 (A) (A) (A) (A) (A) (A) (A) (A)
       Virtual   (A) (A) (A) (A) (A) (A) (A) (A) (A) (A) (A) (A)
                 (A) (A) (A) (A) (A) (A) (A) (A) (A) (A) (A) (A)
                 (A) (A) (A) (A) (A) (A) (A) (A) (A) (A) (A) (A)
                 (A) (A) (A) (A) (A) (A) (A) (A) (A) (A) (A) (A)
                 (A) (A) (A) (A) (A) (A) (A) (A) (A) (A) (A) (A)
                 (A) (A) (A) (A) (A) (A) (A) (A) (A) (A) (A) (A)
                 (A) (A) (A) (A) (A) (A) (A) (A) (A) (A) (A) (A)
                 (A) (A) (A) (A) (A) (A) (A) (A) (A) (A) (A) (A)
                 (A) (A) (A) (A) (A) (A) (A) (A) (A) (A) (A) (A)
                 (A) (A) (A) (A) (A) (A) (A) (A) (A) (A) (A) (A)
                 (A) (A) (A) (A) (A) (A) (A) (A) (A) (A) (A) (A)
                 (A) (A) (A) (A) (A) (A) (A) (A) (A) (A) (A) (A)
                 (A) (A) (A) (A) (A) (A) (A) (A) (A) (A) (A) (A)
                 (A) (A) (A) (A) (A) (A) (A) (A) (A) (A) (A) (A)
                 (A) (A) (A) (A) (A) (A) (A) (A) (A) (A) (A) (A)
                 (A) (A) (A) (A) (A) (A) (A) (A) (A) (A) (A) (A)
                 (A) (A) (A) (A) (A) (A) (A) (A) (A) (A) (A) (A)
                 (A) (A) (A) (A) (A) (A) (A) (A) (A) (A) (A) (A)
                 (A) (A) (A) (A) (A) (A) (A) (A) (A) (A) (A) (A)
                 (A) (A) (A) (A) (A) (A) (A) (A) (A) (A) (A) (A)
                 (A) (A) (A) (A) (A) (A) (A) (A) (A) (A) (A) (A)
                 (A) (A) (A) (A) (A) (A) (A) (A) (A) (A) (A) (A)
                 (A) (A) (A) (A) (A) (A) (A) (A) (A) (A) (A) (A)
                 (A) (A) (A) (A) (A) (A) (A) (A) (A) (A) (A) (A)
                 (A) (A) (A) (A) (A) (A) (A) (A) (A) (A) (A) (A)
                 (A) (A) (A) (A) (A) (A) (A) (A) (A) (A) (A) (A)
                 (A) (A) (A) (A) (A) (A) (A) (A) (A) (A) (A) (A)
                 (A) (A) (A) (A) (A) (A) (A) (A) (A) (A) (A) (A)
                 (A) (A) (A) (A) (A) (A) (A) (A) (A) (A) (A) (A)
                 (A) (A) (A) (A) (A) (A) (A) (A) (A) (A) (A) (A)
                 (A) (A) (A) (A) (A) (A) (A) (A) (A) (A) (A) (A)
                 (A) (A) (A) (A) (A) (A) (A) (A) (A) (A) (A) (A)
                 (A) (A) (A) (A) (A) (A) (A) (A) (A) (A) (A) (A)
                 (A) (A) (A) (A) (A) (A) (A) (A) (A) (A) (A) (A)
                 (A) (A) (A) (A) (A) (A) (A) (A) (A) (A) (A) (A)
                 (A) (A) (A) (A) (A) (A) (A) (A) (A) (A) (A) (A)
                 (A) (A) (A) (A) (A) (A) (A) (A) (A) (A) (A) (A)
                 (A) (A) (A) (A) (A) (A) (A) (A) (A) (A) (A) (A)
                 (A) (A) (A) (A) (A) (A) (A) (A) (A) (A) (A) (A)
                 (A) (A) (A) (A) (A) (A) (A) (A) (A) (A) (A) (A)
                 (A) (A) (A) (A) (A) (A)
 The electronic state is 1-A.
 Alpha  occ. eigenvalues --  -90.10364 -19.63374 -19.60089 -19.59264 -19.58585
 Alpha  occ. eigenvalues --  -19.58353 -14.84806 -14.80509 -14.69396 -10.65462
 Alpha  occ. eigenvalues --  -10.63233 -10.62399 -10.61510 -10.59142 -10.59079
 Alpha  occ. eigenvalues --  -10.59042 -10.57822 -10.57422 -10.56828 -10.56653
 Alpha  occ. eigenvalues --  -10.56048 -10.55755 -10.55512 -10.54970 -10.54916
 Alpha  occ. eigenvalues --  -10.54863 -10.54585 -10.54546 -10.54494 -10.53767
 Alpha  occ. eigenvalues --  -10.53723 -10.53559 -10.53158 -10.53046 -10.52624
 Alpha  occ. eigenvalues --  -10.52580  -8.41329  -6.33567  -6.33474  -6.33394
 Alpha  occ. eigenvalues --   -1.19120  -1.17898  -1.12940  -1.10293  -1.09849
 Alpha  occ. eigenvalues --   -1.09145  -1.06163  -0.97540  -0.95258  -0.94805
 Alpha  occ. eigenvalues --   -0.92186  -0.89854  -0.88585  -0.88056  -0.85016
 Alpha  occ. eigenvalues --   -0.84950  -0.83649  -0.83504  -0.83301  -0.80191
 Alpha  occ. eigenvalues --   -0.79136  -0.76354  -0.75658  -0.74678  -0.70940
 Alpha  occ. eigenvalues --   -0.70191  -0.69083  -0.68721  -0.68360  -0.68005
 Alpha  occ. eigenvalues --   -0.65793  -0.64724  -0.63944  -0.63426  -0.61627
 Alpha  occ. eigenvalues --   -0.60269  -0.59394  -0.58978  -0.58356  -0.56169
 Alpha  occ. eigenvalues --   -0.55450  -0.55162  -0.55061  -0.54079  -0.53681
 Alpha  occ. eigenvalues --   -0.53439  -0.53076  -0.52394  -0.51966  -0.51721
 Alpha  occ. eigenvalues --   -0.51143  -0.50993  -0.50610  -0.50170  -0.49829
 Alpha  occ. eigenvalues --   -0.49602  -0.49481  -0.48834  -0.48352  -0.47998
 Alpha  occ. eigenvalues --   -0.47778  -0.47170  -0.46978  -0.46948  -0.45935
 Alpha  occ. eigenvalues --   -0.45826  -0.45243  -0.43952  -0.43649  -0.43421
 Alpha  occ. eigenvalues --   -0.42762  -0.42469  -0.42244  -0.41927  -0.41897
 Alpha  occ. eigenvalues --   -0.41157  -0.40849  -0.40568  -0.39915  -0.39527
 Alpha  occ. eigenvalues --   -0.39365  -0.39202  -0.38766  -0.38380  -0.37853
 Alpha  occ. eigenvalues --   -0.37328  -0.36232  -0.35879  -0.35361  -0.35113
 Alpha  occ. eigenvalues --   -0.34394  -0.33123  -0.32085  -0.31712  -0.31501
 Alpha  occ. eigenvalues --   -0.29850  -0.28887  -0.28318  -0.27479  -0.25411
 Alpha virt. eigenvalues --   -0.01023   0.00649   0.03302   0.03795   0.09082
 Alpha virt. eigenvalues --    0.10148   0.10919   0.11793   0.12996   0.13478
 Alpha virt. eigenvalues --    0.13856   0.14241   0.15118   0.15497   0.15758
 Alpha virt. eigenvalues --    0.16230   0.16491   0.17197   0.17485   0.17935
 Alpha virt. eigenvalues --    0.18283   0.18344   0.18581   0.18899   0.19102
 Alpha virt. eigenvalues --    0.19412   0.19611   0.20119   0.20323   0.20379
 Alpha virt. eigenvalues --    0.20874   0.20998   0.21172   0.21573   0.21857
 Alpha virt. eigenvalues --    0.22300   0.22526   0.22797   0.22817   0.23238
 Alpha virt. eigenvalues --    0.23634   0.24011   0.24322   0.24354   0.24589
 Alpha virt. eigenvalues --    0.24909   0.25180   0.25408   0.25965   0.26377
 Alpha virt. eigenvalues --    0.27032   0.27366   0.27667   0.28095   0.28177
 Alpha virt. eigenvalues --    0.28681   0.29295   0.29577   0.30353   0.30499
 Alpha virt. eigenvalues --    0.30816   0.31101   0.31511   0.31937   0.32534
 Alpha virt. eigenvalues --    0.32816   0.33442   0.34617   0.35286   0.35472
 Alpha virt. eigenvalues --    0.35806   0.36588   0.37185   0.38460   0.38623
 Alpha virt. eigenvalues --    0.39016   0.39765   0.41337   0.41883   0.42878
 Alpha virt. eigenvalues --    0.44971   0.47217   0.47662   0.48619   0.50148
 Alpha virt. eigenvalues --    0.51280   0.52611   0.53544   0.53891   0.55374
 Alpha virt. eigenvalues --    0.55601   0.56166   0.56971   0.57173   0.57865
 Alpha virt. eigenvalues --    0.58007   0.58486   0.58771   0.59065   0.59339
 Alpha virt. eigenvalues --    0.59609   0.60340   0.60868   0.61056   0.61251
 Alpha virt. eigenvalues --    0.61449   0.61637   0.61825   0.62462   0.62660
 Alpha virt. eigenvalues --    0.63477   0.63843   0.64454   0.64792   0.65363
 Alpha virt. eigenvalues --    0.65931   0.66356   0.66779   0.67346   0.67478
 Alpha virt. eigenvalues --    0.67652   0.68416   0.68842   0.69591   0.70064
 Alpha virt. eigenvalues --    0.70594   0.70940   0.71648   0.71778   0.72535
 Alpha virt. eigenvalues --    0.73005   0.73705   0.73914   0.74533   0.75250
 Alpha virt. eigenvalues --    0.75480   0.76041   0.76176   0.76797   0.77477
 Alpha virt. eigenvalues --    0.78093   0.78468   0.79097   0.79945   0.80890
 Alpha virt. eigenvalues --    0.81153   0.81378   0.82442   0.83110   0.83524
 Alpha virt. eigenvalues --    0.84390   0.84926   0.85331   0.85442   0.86365
 Alpha virt. eigenvalues --    0.87009   0.87783   0.88084   0.88351   0.88573
 Alpha virt. eigenvalues --    0.89284   0.89748   0.90304   0.90445   0.90682
 Alpha virt. eigenvalues --    0.91152   0.91494   0.92227   0.92643   0.92792
 Alpha virt. eigenvalues --    0.92949   0.93472   0.93857   0.94157   0.94631
 Alpha virt. eigenvalues --    0.95238   0.95508   0.96382   0.96446   0.96616
 Alpha virt. eigenvalues --    0.96765   0.96938   0.97241   0.97662   0.97997
 Alpha virt. eigenvalues --    0.98460   0.98957   0.99196   0.99433   0.99740
 Alpha virt. eigenvalues --    1.00187   1.00356   1.01588   1.01708   1.01965
 Alpha virt. eigenvalues --    1.02433   1.03028   1.03606   1.04102   1.04145
 Alpha virt. eigenvalues --    1.04774   1.05433   1.05921   1.06313   1.06811
 Alpha virt. eigenvalues --    1.07786   1.08038   1.08556   1.10224   1.11104
 Alpha virt. eigenvalues --    1.11734   1.12525   1.12666   1.13691   1.14119
 Alpha virt. eigenvalues --    1.15085   1.15529   1.16440   1.17472   1.18353
 Alpha virt. eigenvalues --    1.18815   1.19118   1.19540   1.20908   1.21595
 Alpha virt. eigenvalues --    1.22216   1.23022   1.24059   1.24547   1.25385
 Alpha virt. eigenvalues --    1.26084   1.26845   1.27473   1.28164   1.28852
 Alpha virt. eigenvalues --    1.30081   1.30407   1.31053   1.31689   1.33115
 Alpha virt. eigenvalues --    1.33796   1.34670   1.35196   1.36121   1.36449
 Alpha virt. eigenvalues --    1.37383   1.38940   1.39294   1.39585   1.40657
 Alpha virt. eigenvalues --    1.41361   1.41937   1.43544   1.43790   1.44625
 Alpha virt. eigenvalues --    1.45417   1.46343   1.47789   1.48393   1.49277
 Alpha virt. eigenvalues --    1.49621   1.50172   1.51174   1.51536   1.51887
 Alpha virt. eigenvalues --    1.52395   1.53023   1.54159   1.54892   1.55359
 Alpha virt. eigenvalues --    1.55781   1.56446   1.57341   1.58271   1.58526
 Alpha virt. eigenvalues --    1.60011   1.60566   1.61641   1.61870   1.63576
 Alpha virt. eigenvalues --    1.66955   1.67851   1.69412   1.70253   1.71482
 Alpha virt. eigenvalues --    1.72626   1.73809   1.75031   1.75755   1.77026
 Alpha virt. eigenvalues --    1.78003   1.79012   1.79242   1.80021   1.81381
 Alpha virt. eigenvalues --    1.81674   1.82674   1.82937   1.84561   1.84712
 Alpha virt. eigenvalues --    1.85737   1.86522   1.86722   1.87362   1.88113
 Alpha virt. eigenvalues --    1.88792   1.89443   1.90354   1.91208   1.91636
 Alpha virt. eigenvalues --    1.92159   1.92423   1.92619   1.93326   1.93552
 Alpha virt. eigenvalues --    1.94363   1.94372   1.95135   1.95665   1.96404
 Alpha virt. eigenvalues --    1.97072   1.97695   1.98572   1.98927   1.99811
 Alpha virt. eigenvalues --    2.00306   2.01059   2.01800   2.02760   2.03343
 Alpha virt. eigenvalues --    2.03599   2.03857   2.03861   2.05067   2.05435
 Alpha virt. eigenvalues --    2.06074   2.06380   2.06948   2.07264   2.07663
 Alpha virt. eigenvalues --    2.08584   2.08713   2.09690   2.10553   2.11255
 Alpha virt. eigenvalues --    2.11826   2.12431   2.12988   2.13859   2.14280
 Alpha virt. eigenvalues --    2.14986   2.15811   2.16141   2.16368   2.17433
 Alpha virt. eigenvalues --    2.18428   2.19003   2.19660   2.20697   2.20957
 Alpha virt. eigenvalues --    2.21749   2.22072   2.22917   2.24036   2.24271
 Alpha virt. eigenvalues --    2.25035   2.25242   2.25638   2.27211   2.28334
 Alpha virt. eigenvalues --    2.28924   2.29395   2.30483   2.30922   2.31911
 Alpha virt. eigenvalues --    2.32093   2.32529   2.33021   2.34784   2.35325
 Alpha virt. eigenvalues --    2.35823   2.36549   2.36961   2.38046   2.38366
 Alpha virt. eigenvalues --    2.39408   2.39708   2.39987   2.41392   2.42045
 Alpha virt. eigenvalues --    2.42777   2.43557   2.44363   2.45030   2.46595
 Alpha virt. eigenvalues --    2.48849   2.50319   2.51472   2.51575   2.52057
 Alpha virt. eigenvalues --    2.53322   2.54316   2.55114   2.56161   2.56383
 Alpha virt. eigenvalues --    2.59338   2.60277   2.61429   2.62207   2.63356
 Alpha virt. eigenvalues --    2.63535   2.65418   2.65888   2.66769   2.67999
 Alpha virt. eigenvalues --    2.68495   2.68716   2.69811   2.70849   2.71322
 Alpha virt. eigenvalues --    2.72799   2.73261   2.74268   2.76426   2.76789
 Alpha virt. eigenvalues --    2.77198   2.77921   2.79614   2.79650   2.80348
 Alpha virt. eigenvalues --    2.83413   2.83975   2.86200   2.87230   2.88972
 Alpha virt. eigenvalues --    2.92809   2.93500   2.94180   2.95576   2.96624
 Alpha virt. eigenvalues --    2.99303   2.99695   3.01307   3.02471   3.10416
 Alpha virt. eigenvalues --    3.17607   3.20137   3.23709   3.42604   3.43183
 Alpha virt. eigenvalues --    3.96361   4.01338   4.07347   4.10591   4.12203
 Alpha virt. eigenvalues --    4.14139   4.15686   4.17246   4.18013   4.19879
 Alpha virt. eigenvalues --    4.22132   4.24527   4.24824   4.26356   4.26845
 Alpha virt. eigenvalues --    4.30412   4.31081   4.32554   4.34773   4.35914
 Alpha virt. eigenvalues --    4.36788   4.38154   4.39307   4.41503   4.44101
 Alpha virt. eigenvalues --    4.46781   4.49446   4.51462   4.58450   4.58906
 Alpha virt. eigenvalues --    4.62111   4.64104   4.65783   4.75105   4.75509
 Alpha virt. eigenvalues --    4.78269
          Condensed to atoms (all electrons):
 Mulliken charges:
               1
     1  C   -0.303930
     2  C   -0.304186
     3  C   -0.309705
     4  C   -0.073369
     5  C    0.062409
     6  C   -0.305173
     7  H    0.165948
     8  H    0.160919
     9  H    0.159139
    10  H    0.146360
    11  H    0.156667
    12  H    0.212902
    13  H    0.141497
    14  H    0.179504
    15  H    0.149291
    16  H    0.150779
    17  N   -0.424431
    18  C    0.100109
    19  C    0.083975
    20  C   -0.227843
    21  H    0.205142
    22  C   -0.227042
    23  H    0.264263
    24  C    0.428324
    25  H    0.188208
    26  H    0.206953
    27  N   -0.528958
    28  C   -0.157550
    29  H    0.178387
    30  H    0.199283
    31  C   -0.147104
    32  H    0.169546
    33  H    0.195959
    34  N   -0.755355
    35  S    1.249460
    36  O   -0.646821
    37  O   -0.670450
    38  C    0.048743
    39  C   -0.177138
    40  C   -0.187064
    41  C   -0.169939
    42  C   -0.162130
    43  C   -0.197860
    44  H    0.203074
    45  H    0.139302
    46  H    0.156401
    47  H    0.161825
    48  H    0.156715
    49  O   -0.711920
    50  H    0.481210
    51  C    0.646936
    52  O   -0.523200
    53  O   -0.645159
    54  H    0.485725
    55  C   -0.367618
    56  H    0.200532
    57  H    0.164046
    58  C   -0.067413
    59  H    0.128414
    60  H    0.158255
    61  C   -0.656514
    62  H    0.219188
    63  H    0.188058
    64  H    0.207922
    65  C   -0.287142
    66  H    0.143520
    67  H    0.166388
    68  C   -0.480375
    69  H    0.158458
    70  H    0.158536
    71  H    0.150150
    72  C   -0.337338
    73  H    0.184107
    74  H    0.170039
    75  C   -0.335708
    76  H    0.182596
    77  H    0.173270
 Sum of Mulliken charges =  -0.00000
 Mulliken charges with hydrogens summed into heavy atoms:
               1
     1  C   -0.000903
     2  C    0.015872
     3  C    0.007023
     4  C    0.139533
     5  C    0.203907
     6  C    0.023622
    17  N   -0.424431
    18  C    0.305251
    19  C    0.348238
    20  C   -0.039635
    22  C   -0.020089
    24  C    0.428324
    27  N   -0.528958
    28  C    0.220120
    31  C    0.218401
    34  N   -0.755355
    35  S    1.249460
    36  O   -0.646821
    37  O   -0.670450
    38  C    0.048743
    39  C    0.025936
    40  C   -0.047762
    41  C   -0.013537
    42  C   -0.000306
    43  C   -0.041146
    49  O   -0.230711
    51  C    0.646936
    52  O   -0.523200
    53  O   -0.159434
    55  C   -0.003039
    58  C    0.219256
    61  C   -0.041346
    65  C    0.022767
    68  C   -0.013231
    72  C    0.016808
    75  C    0.020157
 Electronic spatial extent (au):  <R**2>=          15096.4925
 Charge=              0.0000 electrons
 Dipole moment (field-independent basis, Debye):
    X=              1.5518    Y=             -0.3941    Z=             -6.5168  Tot=              6.7106
 Quadrupole moment (field-independent basis, Debye-Ang):
   XX=           -198.1063   YY=           -223.2093   ZZ=           -221.8565
   XY=            -12.0215   XZ=             -1.2036   YZ=             12.3772
 Traceless Quadrupole moment (field-independent basis, Debye-Ang):
   XX=             16.2844   YY=             -8.8186   ZZ=             -7.4658
   XY=            -12.0215   XZ=             -1.2036   YZ=             12.3772
 Octapole moment (field-independent basis, Debye-Ang**2):
  XXX=             75.8320  YYY=            -29.2265  ZZZ=              1.2529  XYY=             21.2988
  XXY=            -13.1025  XXZ=            -24.7569  XZZ=             -7.2480  YZZ=             18.9989
  YYZ=              9.0326  XYZ=            -16.4098
 Hexadecapole moment (field-independent basis, Debye-Ang**3):
 XXXX=         -10047.7628 YYYY=          -5811.4758 ZZZZ=          -3851.0855 XXXY=           -175.6120
 XXXZ=            -15.5175 YYYX=           -100.1839 YYYZ=             87.1118 ZZZX=            -80.3944
 ZZZY=             10.5378 XXYY=          -2647.9426 XXZZ=          -2379.3118 YYZZ=          -1738.5338
 XXYZ=             45.5036 YYXZ=             57.7721 ZZXY=            -42.3498
 N-N= 4.885904953303D+03 E-N=-1.442435965304D+04  KE= 1.976466436887D+03
 No NMR shielding tensors so no spin-rotation constants.
 Leave Link  601 at Fri Feb  8 00:33:03 2019, MaxMem=   104857600 cpu:              25.8 elap:               1.2
 (Enter /home/xinyan/g16/l701.exe)
 ... and contract with generalized density number  0.
 Compute integral first derivatives.
 R6Disp: Adding Grimme-D3 dispersion energy 1st derivatives to the gradient.
 Leave Link  701 at Fri Feb  8 00:33:04 2019, MaxMem=   104857600 cpu:              18.7 elap:               0.8
 (Enter /home/xinyan/g16/l702.exe)
 L702 exits ... SP integral derivatives will be done elsewhere.
 Leave Link  702 at Fri Feb  8 00:33:04 2019, MaxMem=   104857600 cpu:               1.4 elap:               0.1
 (Enter /home/xinyan/g16/l703.exe)
 Integral derivatives from FoFJK, PRISM(SPDF).
 Compute integral first derivatives, UseDBF=F ICtDFT=           0.
 Calling FoFJK, ICntrl=      2127 FMM=T ISym2X=0 I1Cent= 0 IOpClX= 0 NMat=1 NMatS=1 NMatT=0.
 FoFJK:  IHMeth= 1 ICntrl=    2127 DoSepK=F KAlg= 0 I1Cent=           0 FoldK=F
 IRaf=         0 NMat=       1 IRICut=       1 DoRegI=T DoRafI=F ISym2E= 0 IDoP0=0 IntGTp=1.
 FoFCou: FMM=T IPFlag=           0 FMFlag=      100000 FMFlg1=        2001
         NFxFlg=           0 DoJE=F BraDBF=F KetDBF=F FulRan=T
         wScrn=  0.000000 ICntrl=      2127 IOpCl=  0 I1Cent=           0 NGrid=           0
         NMat0=    1 NMatS0=      1 NMatT0=    0 NMatD0=    1 NMtDS0=    0 NMtDT0=    0
 Symmetry not used in FoFCou.
 FMM levels:  10  Number of levels for PrismC:   9
 Leave Link  703 at Fri Feb  8 00:33:35 2019, MaxMem=   104857600 cpu:             747.6 elap:              31.2
 (Enter /home/xinyan/g16/l716.exe)
 Dipole        = 6.10539836D-01-1.55065533D-01-2.56389376D+00
 ***** Axes restored to original set *****
 -------------------------------------------------------------------
 Center     Atomic                   Forces (Hartrees/Bohr)
 Number     Number              X              Y              Z
 -------------------------------------------------------------------
      1        6           0.000017484   -0.000094776   -0.000067279
      2        6           0.000079799   -0.000002520    0.000114347
      3        6           0.000053419   -0.000003731    0.000020227
      4        6           0.000034068    0.000169803    0.000186481
      5        6          -0.000039378    0.000099578   -0.000073646
      6        6           0.000044114    0.000106312    0.000171232
      7        1           0.000030122    0.000072964    0.000028622
      8        1           0.000045106    0.000007930    0.000056847
      9        1           0.000015187    0.000033602    0.000092103
     10        1          -0.000029035    0.000051616    0.000081454
     11        1          -0.000003563   -0.000009792    0.000112328
     12        1           0.000075993   -0.000034682    0.000174095
     13        1          -0.000007149   -0.000141056    0.000207247
     14        1           0.000044274   -0.000007025    0.000093344
     15        1           0.000041864    0.000013683    0.000086827
     16        1          -0.000028999    0.000080347    0.000061328
     17        7           0.000025190    0.000009326    0.000058772
     18        6          -0.000000512    0.000038136    0.000017953
     19        6           0.000054884    0.000053902    0.000000565
     20        6           0.000035994    0.000036710    0.000012646
     21        1           0.000044967    0.000118486    0.000073340
     22        6          -0.000002698   -0.000033393   -0.000004473
     23        1           0.000035992    0.000042382    0.000030626
     24        6           0.000044578   -0.000052606   -0.000047571
     25        1           0.000019084    0.000057041    0.000023506
     26        1           0.000025525   -0.000007317   -0.000021278
     27        7           0.000052017    0.000001946   -0.000048553
     28        6           0.000038466   -0.000111307   -0.000099888
     29        1           0.000015868   -0.000085591   -0.000134291
     30        1           0.000076216   -0.000106629   -0.000073797
     31        6           0.000043400   -0.000021879   -0.000071049
     32        1          -0.000009449   -0.000005368   -0.000058959
     33        1           0.000034158    0.000006220    0.000004040
     34        7           0.000201118    0.000107254    0.000019532
     35       16          -0.000092692    0.000192649   -0.000046674
     36        8          -0.000122009   -0.000022513   -0.000077503
     37        8           0.000188039   -0.000027368    0.000049509
     38        6          -0.000182309    0.000051177   -0.000118160
     39        6          -0.000059972    0.000092879   -0.000099053
     40        6           0.000062559    0.000006825   -0.000049658
     41        6           0.000028936    0.000018409   -0.000142295
     42        6          -0.000007890   -0.000043762   -0.000260752
     43        6          -0.000146899   -0.000001590   -0.000170763
     44        1          -0.000101136    0.000075372   -0.000008879
     45        1           0.000121582    0.000029272   -0.000017374
     46        1           0.000155588   -0.000052886   -0.000203060
     47        1          -0.000029088   -0.000038071   -0.000321878
     48        1          -0.000218938   -0.000004611   -0.000247227
     49        8          -0.000072862    0.000066887   -0.000170352
     50        1           0.000214495    0.000218799    0.000041139
     51        6           0.000001917   -0.000058648    0.000062212
     52        8          -0.000083199    0.000007132    0.000145316
     53        8          -0.000157220    0.000045146    0.000099116
     54        1           0.000052379    0.000117996    0.000064824
     55        6           0.000044076   -0.000028141    0.000055831
     56        1           0.000186787   -0.000075750    0.000090031
     57        1           0.000113422   -0.000097799   -0.000040925
     58        6          -0.000284438    0.000035033    0.000009643
     59        1          -0.000394576   -0.000308102   -0.000093001
     60        1          -0.000561766    0.000169450    0.000130761
     61        6           0.000021855    0.000025045    0.000078222
     62        1          -0.000058284   -0.000026288    0.000087764
     63        1          -0.000019707   -0.000027810    0.000074103
     64        1          -0.000012069   -0.000055730    0.000057116
     65        6          -0.000007021    0.000010305    0.000076086
     66        1          -0.000034362    0.000045099    0.000037462
     67        1           0.000002789    0.000037240    0.000178128
     68        6           0.000013877    0.000008225    0.000102363
     69        1          -0.000047569    0.000054616    0.000122727
     70        1           0.000068435   -0.000062073    0.000143519
     71        1           0.000031665   -0.000010857    0.000010550
     72        6           0.000040524   -0.000116294   -0.000147044
     73        1           0.000076731   -0.000184698   -0.000158709
     74        1          -0.000028378   -0.000113631   -0.000190972
     75        6           0.000049600   -0.000121196   -0.000050046
     76        1           0.000097469   -0.000141329   -0.000038247
     77        1           0.000041556   -0.000077977   -0.000090528
 -------------------------------------------------------------------
 Cartesian Forces:  Max     0.000561766 RMS     0.000104878
 Z-matrix is all fixed cartesians, so copy forces.
 Leave Link  716 at Fri Feb  8 00:33:35 2019, MaxMem=   104857600 cpu:               2.4 elap:               0.1
 (Enter /home/xinyan/g16/l103.exe)

 GradGradGradGradGradGradGradGradGradGradGradGradGradGradGradGradGradGrad
 Berny optimization.
 Search for a local minimum.
 Step number   1 out of a maximum of    2
 All quantities printed in internal units (Hartrees-Bohrs-Radians)
 Second derivative matrix not updated -- first step.
 ITU=  0
     Eigenvalues ---   -0.00000   0.00000   0.00000   0.00000   0.00000
     Eigenvalues ---    0.00000   0.00000   0.00000   0.00000   0.00000
     Eigenvalues ---    0.00000   0.00000   0.00013   0.00018   0.00033
     Eigenvalues ---    0.00063   0.00116   0.00133   0.00165   0.00181
     Eigenvalues ---    0.00204   0.00218   0.00276   0.00284   0.00394
     Eigenvalues ---    0.00447   0.00509   0.00512   0.00591   0.00595
     Eigenvalues ---    0.00664   0.00675   0.00778   0.00975   0.01063
     Eigenvalues ---    0.01232   0.01645   0.01723   0.01764   0.01838
     Eigenvalues ---    0.01887   0.02009   0.02217   0.02390   0.02520
     Eigenvalues ---    0.02573   0.02717   0.02802   0.03093   0.03497
     Eigenvalues ---    0.03540   0.03552   0.03577   0.03648   0.04083
     Eigenvalues ---    0.04166   0.04219   0.04311   0.04547   0.04799
     Eigenvalues ---    0.04859   0.04879   0.05001   0.05049   0.05073
     Eigenvalues ---    0.05103   0.05133   0.05166   0.05301   0.05351
     Eigenvalues ---    0.05498   0.05594   0.05666   0.05696   0.05751
     Eigenvalues ---    0.05766   0.05794   0.06145   0.06256   0.06388
     Eigenvalues ---    0.06503   0.06512   0.06844   0.06965   0.07029
     Eigenvalues ---    0.07101   0.07198   0.07235   0.07293   0.07347
     Eigenvalues ---    0.07554   0.07909   0.07938   0.08018   0.08125
     Eigenvalues ---    0.08174   0.08570   0.08676   0.09115   0.09678
     Eigenvalues ---    0.09752   0.10018   0.10098   0.10210   0.10355
     Eigenvalues ---    0.11205   0.11413   0.11558   0.11920   0.12361
     Eigenvalues ---    0.12886   0.12912   0.13012   0.13022   0.13289
     Eigenvalues ---    0.13728   0.13786   0.13948   0.14191   0.14357
     Eigenvalues ---    0.15819   0.16367   0.16616   0.16664   0.16715
     Eigenvalues ---    0.16903   0.17207   0.17329   0.17629   0.17712
     Eigenvalues ---    0.18614   0.19108   0.20306   0.20648   0.20724
     Eigenvalues ---    0.20921   0.21788   0.22009   0.23181   0.24743
     Eigenvalues ---    0.26464   0.27615   0.29712   0.29785   0.30084
     Eigenvalues ---    0.30266   0.31619   0.32489   0.34303   0.34841
     Eigenvalues ---    0.35047   0.36712   0.39321   0.41755   0.42375
     Eigenvalues ---    0.44000   0.44928   0.45098   0.48454   0.49317
     Eigenvalues ---    0.50300   0.56068   0.57355   0.59198   0.62539
     Eigenvalues ---    0.65074   0.65796   0.67999   0.68297   0.69272
     Eigenvalues ---    0.70681   0.75531   0.78005   0.78396   0.79659
     Eigenvalues ---    0.82263   0.83013   0.83941   0.85789   0.87091
     Eigenvalues ---    0.88998   0.89469   0.90550   0.91137   0.92339
     Eigenvalues ---    0.93325   0.94064   0.94480   0.95421   0.95575
     Eigenvalues ---    0.96032   0.97475   0.99785   0.99925   1.00269
     Eigenvalues ---    1.01187   1.02041   1.04073   1.04468   1.05537
     Eigenvalues ---    1.05968   1.06216   1.06471   1.07895   1.08797
     Eigenvalues ---    1.10024   1.14191   1.16406   1.17601   1.20145
     Eigenvalues ---    1.23034   1.24097   1.28126   1.37016   1.39985
     Eigenvalues ---    1.48404   1.54092   1.57126   1.59442   1.60486
     Eigenvalues ---    1.71247   1.75718   1.81756   2.11559   2.28582
 Eigenvalue     1 is  -6.66D-16 should be greater than     0.000000 Eigenvector:
                          Y46       Y41       Y45       Y47       Y40
   1                    0.14200   0.14200   0.14200   0.14200   0.14200
                          Y42       Y39       Y43       Y44       Y48
   1                    0.14200   0.14200   0.14200   0.14200   0.14200
 Eigenvalue     2 is   2.22D-16 Eigenvector:
                          Y71       Y69       Y68       Y57       Y66
   1                    0.14619   0.14619   0.14619   0.14619   0.14619
                          Y70       Y65       Y55       Y56       Y67
   1                    0.14619   0.14619   0.14619   0.14619   0.14619
 Eigenvalue     3 is   4.44D-16 Eigenvector:
                          X54       X53       X51       X57       X56
   1                    0.19264   0.19264   0.19264   0.19264   0.19264
                          X52       X55       X65       X66       X71
   1                    0.19264   0.19264   0.19264   0.19264   0.19264
 Eigenvalue     4 is   2.81D-09 Eigenvector:
                          Z44       Z49       Z50       Z45       X59
   1                    0.27905   0.25372   0.25256   0.22624  -0.21066
                          Z39       X60       Z40       Z60       X49
   1                    0.20192  -0.18077   0.17210   0.17189  -0.16851
 Eigenvalue     5 is   7.12D-09 Eigenvector:
                          Z47       X46       X45       Z48       X41
   1                    0.23310  -0.23214  -0.22928   0.18957  -0.18137
                          X40       Z42       Z43       Y49       Z46
   1                   -0.17952   0.16814   0.14366  -0.13681   0.12814
 Eigenvalue     6 is   1.06D-08 Eigenvector:
                          Z54       Z53       Z52       Z69       Z51
   1                    0.44966   0.33730   0.31524  -0.26815   0.25437
                          Z70       Z71       Z68       Y66       Y69
   1                   -0.23982  -0.23405  -0.20079  -0.17297  -0.15515
 Eigenvalue     7 is   2.30D-08 Eigenvector:
                          X54       X69       X53       Y54       X70
   1                    0.40395  -0.34021   0.33534  -0.26341  -0.25494
                          Y71       X68       X51       X52       Y53
   1                    0.22837  -0.22310   0.20556   0.19589  -0.17982
 Eigenvalue     8 is   3.88D-08 Eigenvector:
                          Y47       X50       Y44       X49       Y60
   1                    0.35830  -0.35453  -0.26815  -0.25558  -0.23202
                          Y49       Y42       X47       Y48       Y46
   1                   -0.22971   0.21913   0.21343   0.21230   0.18592
 Eigenvalue     9 is   8.83D-08 Eigenvector:
                          Y45       Y59       Y46       Y40       X45
   1                    0.29373  -0.22832   0.21861   0.19241   0.18953
                          Y48       Z69       Y41       Z70       X46
   1                   -0.16682  -0.15059   0.15048  -0.14771   0.14729
 Eigenvalue    10 is   1.15D-07 Eigenvector:
                          X60       X59       X48       Y48       Y59
   1                    0.21122   0.20811   0.17642   0.17399   0.16387
                          X58       Y45       X45       Y73       Y77
   1                    0.15852  -0.15401  -0.14632   0.14352   0.12537
 Eigenvalue    11 is   1.77D-07 Eigenvector:
                          Y64       Y62       Y61       Y63       Y37
   1                    0.24991   0.20912   0.20219   0.18893   0.15188
                          Z76       Z60       Y45       Y46       Y7
   1                   -0.14868   0.14701   0.14675   0.14332  -0.14287
 Eigenvalue    12 is   3.95D-06 Eigenvector:
                          X52       X66       X56       Z67       Z57
   1                    0.34172   0.33224  -0.31148  -0.29899   0.29643
                          X70       Z71       Y52       Y67       Y57
   1                   -0.27766   0.24632  -0.20065  -0.19483   0.18671
 Quadratic step=1.199D+01 exceeds max=3.000D-01 adjusted using Lamda=-4.330D-03.
 Angle between NR and scaled steps=  20.09 degrees.
 Angle between quadratic step and forces=  28.39 degrees.
 Linear search not attempted -- first point.
 B after Tr=    -0.000153    0.001060   -0.000109
         Rot=    1.000000    0.000173    0.000011   -0.000015 Ang=   0.02 deg.
 Variable       Old X    -DE/DX   Delta X   Delta X   Delta X     New X
                                 (Linear)    (Quad)   (Total)
    X1       -9.35157   0.00002   0.00000   0.00338   0.00323  -9.34835
    Y1        0.45503  -0.00009   0.00000   0.00252   0.00313   0.45816
    Z1       -0.50335  -0.00007   0.00000   0.01858   0.01812  -0.48523
    X2       -9.61597   0.00008   0.00000   0.00604   0.00599  -9.60998
    Y2       -1.91696  -0.00000   0.00000   0.00352   0.00355  -1.91340
    Z2       -2.14104   0.00011   0.00000   0.01706   0.01741  -2.12363
    X3       -7.06043   0.00005   0.00000   0.00616   0.00615  -7.05428
    Y3       -2.67674  -0.00000   0.00000   0.00955   0.00927  -2.66747
    Z3       -3.27641   0.00002   0.00000   0.01410   0.01476  -3.26164
    X4       -5.18497   0.00003   0.00000   0.00814   0.00810  -5.17687
    Y4       -3.11342   0.00017   0.00000   0.01000   0.01052  -3.10290
    Z4       -1.13178   0.00019   0.00000   0.01265   0.01350  -1.11827
    X5       -4.80788  -0.00004   0.00000   0.00694   0.00679  -4.80109
    Y5       -0.67488   0.00010   0.00000   0.00947   0.01055  -0.66433
    Z5        0.46525  -0.00007   0.00000   0.01327   0.01329   0.47854
    X6       -7.37517   0.00004   0.00000   0.00686   0.00667  -7.36849
    Y6        0.09560   0.00011   0.00000   0.00553   0.00692   0.10252
    Z6        1.58060   0.00017   0.00000   0.01628   0.01598   1.59659
    X7       -7.23525   0.00003   0.00000   0.00817   0.00824  -7.22701
    Y7       -4.37884   0.00007   0.00000   0.01121   0.01052  -4.36831
    Z7       -4.44371   0.00003   0.00000   0.01141   0.01266  -4.43105
    X8      -10.34073   0.00005   0.00000   0.00987   0.00984 -10.33089
    Y8       -3.48182   0.00001   0.00000   0.00105   0.00146  -3.48036
    Z8       -0.98746   0.00006   0.00000   0.01605   0.01692  -0.97053
    X9      -10.98409   0.00002   0.00000   0.00408   0.00405 -10.98004
    Y9       -1.60283   0.00003   0.00000   0.00289   0.00236  -1.60047
    Z9       -3.66133   0.00009   0.00000   0.01870   0.01891  -3.64242
   X10       -8.76980  -0.00003   0.00000  -0.00212  -0.00230  -8.77211
   Y10        2.04330   0.00005   0.00000   0.00508   0.00529   2.04860
   Z10       -1.70882   0.00008   0.00000   0.01920   0.01820  -1.69062
   X11      -11.18404  -0.00000   0.00000   0.00331   0.00312 -11.18092
   Y11        0.95652  -0.00001   0.00000  -0.00232  -0.00148   0.95504
   Z11        0.31780   0.00011   0.00000   0.02155   0.02087   0.33867
   X12       -5.89309   0.00008   0.00000   0.01114   0.01113  -5.88197
   Y12       -4.60950  -0.00003   0.00000   0.00853   0.00946  -4.60004
   Z12        0.10452   0.00017   0.00000   0.01313   0.01449   0.11901
   X13       -4.29144  -0.00001   0.00000   0.00494   0.00478  -4.28666
   Y13        0.80138  -0.00014   0.00000   0.01021   0.01083   0.81221
   Z13       -0.90456   0.00021   0.00000   0.01437   0.01389  -0.89066
   X14       -7.99709   0.00004   0.00000   0.01083   0.01065  -7.98644
   Y14       -1.35372  -0.00001   0.00000   0.00393   0.00577  -1.34796
   Z14        2.92741   0.00009   0.00000   0.01654   0.01673   2.94414
   X15       -7.10378   0.00004   0.00000   0.00547   0.00521  -7.09858
   Y15        1.86287   0.00001   0.00000   0.00544   0.00720   1.87007
   Z15        2.62874   0.00009   0.00000   0.01678   0.01588   2.64462
   X16       -6.41235  -0.00003   0.00000   0.00201   0.00198  -6.41037
   Y16       -1.12860   0.00008   0.00000   0.01277   0.01209  -1.11651
   Z16       -4.49906   0.00006   0.00000   0.01591   0.01605  -4.48301
   X17       -2.66608   0.00003   0.00000   0.00706   0.00707  -2.65901
   Y17       -3.98071   0.00001   0.00000   0.01109   0.01138  -3.96933
   Z17       -1.99145   0.00006   0.00000   0.00812   0.00932  -1.98213
   X18       -1.41200  -0.00000   0.00000   0.00569   0.00570  -1.40631
   Y18       -2.73145   0.00004   0.00000   0.01408   0.01377  -2.71768
   Z18       -3.83580   0.00002   0.00000   0.00914   0.00994  -3.82587
   X19       -1.35597   0.00005   0.00000   0.00744   0.00746  -1.34851
   Y19       -5.55417   0.00005   0.00000   0.00513   0.00599  -5.54818
   Z19       -0.45724   0.00000   0.00000   0.00162   0.00340  -0.45383
   X20        1.13374   0.00004   0.00000   0.00440   0.00442   1.13816
   Y20       -2.97577   0.00004   0.00000   0.00938   0.00903  -2.96674
   Z20       -4.17735   0.00001   0.00000   0.00260   0.00354  -4.17381
   X21       -2.53599   0.00004   0.00000   0.00602   0.00602  -2.52997
   Y21       -1.48275   0.00012   0.00000   0.02015   0.01941  -1.46335
   Z21       -5.00248   0.00007   0.00000   0.01527   0.01561  -4.98687
   X22        1.19346  -0.00000   0.00000   0.00602   0.00605   1.19951
   Y22       -5.88827  -0.00003   0.00000  -0.00081   0.00005  -5.88823
   Z22       -0.67609  -0.00000   0.00000  -0.00576  -0.00381  -0.67990
   X23       -2.43875   0.00004   0.00000   0.00891   0.00893  -2.42982
   Y23       -6.45513   0.00004   0.00000   0.00415   0.00550  -6.44964
   Z23        1.03190   0.00003   0.00000   0.00212   0.00419   1.03609
   X24        2.57781   0.00004   0.00000   0.00503   0.00506   2.58287
   Y24       -4.45488  -0.00005   0.00000  -0.00018   0.00011  -4.45477
   Z24       -2.45944  -0.00005   0.00000  -0.00613  -0.00464  -2.46409
   X25        2.03002   0.00002   0.00000   0.00328   0.00331   2.03333
   Y25       -1.93587   0.00006   0.00000   0.01204   0.01119  -1.92468
   Z25       -5.69271   0.00002   0.00000   0.00376   0.00436  -5.68835
   X26        2.11918   0.00003   0.00000   0.00647   0.00652   2.12569
   Y26       -7.09133  -0.00001   0.00000  -0.00622  -0.00486  -7.09619
   Z26        0.69085  -0.00002   0.00000  -0.01083  -0.00844   0.68241
   X27        5.10969   0.00005   0.00000   0.00487   0.00490   5.11459
   Y27       -4.46850   0.00000   0.00000  -0.00789  -0.00754  -4.47605
   Z27       -2.49234  -0.00005   0.00000  -0.01439  -0.01285  -2.50519
   X28        6.53940   0.00004   0.00000   0.00858   0.00861   6.54800
   Y28       -5.57970  -0.00011   0.00000  -0.02196  -0.02085  -5.60055
   Z28       -0.39032  -0.00010   0.00000  -0.02438  -0.02242  -0.41274
   X29        6.27674   0.00002   0.00000   0.00149   0.00158   6.27832
   Y29       -7.62941  -0.00009   0.00000  -0.02127  -0.02015  -7.64956
   Z29       -0.32838  -0.00013   0.00000  -0.03220  -0.02953  -0.35791
   X30        5.86652   0.00008   0.00000   0.01840   0.01836   5.88489
   Y30       -4.75725  -0.00011   0.00000  -0.02708  -0.02536  -4.78262
   Z30        1.39428  -0.00007   0.00000  -0.01830  -0.01663   1.37765
   X31        6.57477   0.00004   0.00000   0.00667   0.00668   6.58145
   Y31       -2.50067  -0.00002   0.00000  -0.00686  -0.00692  -2.50760
   Z31       -3.79812  -0.00007   0.00000  -0.01086  -0.00996  -3.80809
   X32        7.01404  -0.00001   0.00000  -0.00205  -0.00199   7.01205
   Y32       -3.10253  -0.00001   0.00000   0.00035  -0.00036  -3.10290
   Z32       -5.73250  -0.00006   0.00000  -0.01508  -0.01396  -5.74647
   X33        5.49238   0.00003   0.00000   0.01224   0.01219   5.50456
   Y33       -0.74179   0.00001   0.00000  -0.00304  -0.00314  -0.74493
   Z33       -3.84461   0.00000   0.00000   0.00093   0.00120  -3.84341
   X34       -2.68426   0.00020   0.00000   0.00753   0.00735  -2.67691
   Y34       -0.80742   0.00011   0.00000   0.00936   0.01110  -0.79632
   Z34        2.18772   0.00002   0.00000   0.01228   0.01239   2.20011
   X35       -2.75276  -0.00009   0.00000   0.00458   0.00441  -2.74835
   Y35       -2.65204   0.00019   0.00000   0.00244   0.00499  -2.64705
   Z35        4.53251  -0.00005   0.00000   0.00651   0.00726   4.53976
   X36       -4.78282  -0.00012   0.00000   0.00495   0.00484  -4.77798
   Y36       -4.57251  -0.00002   0.00000   0.00244   0.00489  -4.56763
   Z36        4.42143  -0.00008   0.00000  -0.00458  -0.00321   4.41822
   X37       -0.18376   0.00019   0.00000   0.00446   0.00431  -0.17945
   Y37       -3.71592  -0.00003   0.00000   0.00182   0.00459  -3.71133
   Z37        4.95847   0.00005   0.00000   0.00713   0.00830   4.96677
   X38       -1.89696  -0.00018   0.00000  -0.03593  -0.03623  -1.93320
   Y38        5.13248   0.00005   0.00000   0.00411   0.00515   5.13763
   Z38        0.10662  -0.00012   0.00000  -0.01635  -0.01828   0.08834
   X39       -0.62369  -0.00006   0.00000  -0.01039  -0.01062  -0.63430
   Y39        3.81587   0.00009   0.00000   0.01295   0.01337   3.82924
   Z39       -1.79966  -0.00010   0.00000  -0.00554  -0.00698  -1.80665
   X40       -1.63144   0.00006   0.00000   0.01336   0.01319  -1.61825
   Y40        3.72423   0.00001   0.00000   0.00895   0.00849   3.73272
   Z40       -4.23028  -0.00005   0.00000  -0.01510  -0.01654  -4.24682
   X41       -3.94148   0.00003   0.00000   0.01367   0.01347  -3.92801
   Y41        4.87281   0.00002   0.00000  -0.00101  -0.00173   4.87108
   Z41       -4.77290  -0.00014   0.00000  -0.03707  -0.03894  -4.81184
   X42       -5.23611  -0.00001   0.00000  -0.01032  -0.01059  -5.24670
   Y42        6.14306  -0.00004   0.00000  -0.00745  -0.00755   6.13551
   Z42       -2.86414  -0.00026   0.00000  -0.04919  -0.05153  -2.91568
   X43       -4.20746  -0.00015   0.00000  -0.03561  -0.03595  -4.24340
   Y43        6.27448  -0.00000   0.00000  -0.00592  -0.00516   6.26932
   Z43       -0.44471  -0.00017   0.00000  -0.03849  -0.04086  -0.48557
   X44        1.10407  -0.00010   0.00000  -0.01038  -0.01059   1.09348
   Y44        2.79740   0.00008   0.00000   0.02024   0.02087   2.81827
   Z44       -1.34186  -0.00001   0.00000   0.01002   0.00896  -1.33290
   X45       -0.60930   0.00012   0.00000   0.03176   0.03164  -0.57766
   Y45        2.73638   0.00003   0.00000   0.01338   0.01245   2.74883
   Z45       -5.71500  -0.00002   0.00000  -0.00538  -0.00645  -5.72145
   X46       -4.72881   0.00016   0.00000   0.03270   0.03254  -4.69627
   Y46        4.78199  -0.00005   0.00000  -0.00391  -0.00531   4.77668
   Z46       -6.66597  -0.00020   0.00000  -0.04483  -0.04669  -6.71266
   X47       -7.04698  -0.00003   0.00000  -0.00954  -0.00984  -7.05682
   Y47        7.02755  -0.00004   0.00000  -0.01371  -0.01401   7.01355
   Z47       -3.25316  -0.00032   0.00000  -0.06702  -0.06971  -3.32287
   X48       -5.22128  -0.00022   0.00000  -0.05447  -0.05487  -5.27614
   Y48        7.25768  -0.00000   0.00000  -0.01073  -0.00948   7.24820
   Z48        1.04938  -0.00025   0.00000  -0.04817  -0.05089   0.99849
   X49        0.50856  -0.00007   0.00000  -0.01708  -0.01740   0.49117
   Y49        3.09159   0.00007   0.00000   0.03289   0.03515   3.12674
   Z49        3.43817  -0.00017   0.00000  -0.00968  -0.01086   3.42731
   X50       -0.55626   0.00021   0.00000   0.02199   0.02173  -0.53453
   Y50        1.62197   0.00022   0.00000   0.01127   0.01330   1.63527
   Z50        2.89780   0.00004   0.00000  -0.02608  -0.02676   2.87104
   X51        4.49781   0.00000   0.00000  -0.00126  -0.00148   4.49633
   Y51        0.38295  -0.00006   0.00000  -0.00143   0.00069   0.38364
   Z51        2.62952   0.00006   0.00000   0.01839   0.01825   2.64776
   X52        3.84646  -0.00008   0.00000  -0.01593  -0.01609   3.83038
   Y52       -0.34642   0.00001   0.00000   0.00545   0.00682  -0.33960
   Z52        0.54328   0.00015   0.00000   0.02061   0.02070   0.56398
   X53        3.95612  -0.00016   0.00000  -0.00168  -0.00191   3.95421
   Y53       -0.81753   0.00005   0.00000   0.00069   0.00352  -0.81401
   Z53        4.75344   0.00010   0.00000   0.01939   0.01965   4.77308
   X54        2.54238   0.00005   0.00000  -0.01007  -0.01026   2.53212
   Y54       -2.03760   0.00012   0.00000   0.01013   0.01283  -2.02477
   Z54        4.49776   0.00006   0.00000   0.02238   0.02303   4.52079
   X55        6.11364   0.00004   0.00000   0.01420   0.01390   6.12754
   Y55        2.69713  -0.00003   0.00000  -0.01133  -0.00902   2.68811
   Z55        3.05812   0.00006   0.00000   0.01451   0.01361   3.07173
   X56        5.29611   0.00019   0.00000   0.03301   0.03265   5.32876
   Y56        3.71375  -0.00008   0.00000  -0.01519  -0.01235   3.70140
   Z56        4.66158   0.00009   0.00000   0.02640   0.02512   4.68670
   X57        8.00286   0.00011   0.00000   0.01660   0.01631   8.01917
   Y57        2.06388  -0.00010   0.00000  -0.02260  -0.02004   2.04385
   Z57        3.64717  -0.00004   0.00000  -0.00494  -0.00559   3.64158
   X58       -0.80257  -0.00028   0.00000  -0.06362  -0.06399  -0.86655
   Y58        5.27931   0.00004   0.00000   0.00664   0.00862   5.28793
   Z58        2.74766   0.00001   0.00000  -0.00465  -0.00660   2.74106
   X59       -2.33623  -0.00039   0.00000  -0.08642  -0.08683  -2.42306
   Y59        5.72373  -0.00031   0.00000  -0.04096  -0.03856   5.68517
   Z59        4.08718  -0.00009   0.00000  -0.01511  -0.01724   4.06994
   X60        0.55087  -0.00056   0.00000  -0.10194  -0.10236   0.44852
   Y60        6.85264   0.00017   0.00000   0.03768   0.03975   6.89238
   Z60        2.84812   0.00013   0.00000   0.02111   0.01863   2.86675
   X61       -3.32017   0.00002   0.00000  -0.00167  -0.00195  -3.32212
   Y61       -0.74168   0.00003   0.00000  -0.00733  -0.00386  -0.74554
   Z61        7.26660   0.00008   0.00000   0.01233   0.01241   7.27901
   X62       -1.87837  -0.00006   0.00000  -0.00385  -0.00418  -1.88254
   Y62        0.73662  -0.00003   0.00000  -0.00543  -0.00191   0.73471
   Z62        7.27994   0.00009   0.00000   0.01952   0.01912   7.29906
   X63       -5.20518  -0.00002   0.00000  -0.00254  -0.00284  -5.20802
   Y63        0.07994  -0.00003   0.00000  -0.00918  -0.00582   0.07411
   Z63        7.09817   0.00007   0.00000   0.01269   0.01245   7.11062
   X64       -3.18349  -0.00001   0.00000  -0.00260  -0.00289  -3.18638
   Y64       -1.92408  -0.00006   0.00000  -0.01292  -0.00886  -1.93294
   Z64        8.94959   0.00006   0.00000   0.00855   0.00904   8.95864
   X65        6.26658  -0.00001   0.00000   0.00074   0.00044   6.26702
   Y65        4.38018   0.00001   0.00000   0.00024   0.00175   4.38193
   Z65        0.72839   0.00008   0.00000   0.02195   0.02046   0.74885
   X66        6.98269  -0.00003   0.00000  -0.01170  -0.01193   6.97076
   Y66        3.28113   0.00005   0.00000   0.00806   0.00903   3.29016
   Z66       -0.87642   0.00004   0.00000   0.01102   0.00992  -0.86650
   X67        4.34601   0.00000   0.00000  -0.00208  -0.00239   4.34362
   Y67        4.96000   0.00004   0.00000   0.00551   0.00679   4.96679
   Z67        0.21556   0.00018   0.00000   0.03865   0.03691   0.25248
   X68        7.91994   0.00001   0.00000   0.00543   0.00505   7.92499
   Y68        6.70189   0.00001   0.00000  -0.00333  -0.00162   6.70027
   Z68        1.16056   0.00010   0.00000   0.02330   0.02104   1.18160
   X69        8.02387  -0.00005   0.00000  -0.00717  -0.00755   8.01632
   Y69        7.87742   0.00005   0.00000   0.00717   0.00829   7.88571
   Z69       -0.53651   0.00012   0.00000   0.02976   0.02710  -0.50941
   X70        7.16716   0.00007   0.00000   0.01749   0.01704   7.18421
   Y70        7.86893  -0.00006   0.00000  -0.01246  -0.01024   7.85870
   Z70        2.69471   0.00014   0.00000   0.03612   0.03344   2.72815
   X71        9.85012   0.00003   0.00000   0.00912   0.00875   9.85887
   Y71        6.15960  -0.00001   0.00000  -0.00718  -0.00524   6.15436
   Z71        1.67657   0.00001   0.00000   0.00533   0.00330   1.67987
   X72        9.26372   0.00004   0.00000   0.00908   0.00909   9.27281
   Y72       -4.81427  -0.00012   0.00000  -0.02962  -0.02862  -4.84289
   Z72       -0.94749  -0.00015   0.00000  -0.03209  -0.03033  -0.97782
   X73       10.41430   0.00008   0.00000   0.01661   0.01659  10.43089
   Y73       -4.76812  -0.00018   0.00000  -0.04253  -0.04091  -4.80903
   Z73        0.76453  -0.00016   0.00000  -0.03681  -0.03503   0.72949
   X74       10.12254  -0.00003   0.00000  -0.00188  -0.00180  10.12074
   Y74       -6.14940  -0.00011   0.00000  -0.02623  -0.02567  -6.17506
   Z74       -2.27434  -0.00019   0.00000  -0.04259  -0.04035  -2.31469
   X75        8.95485   0.00005   0.00000   0.01317   0.01313   8.96797
   Y75       -2.21476  -0.00012   0.00000  -0.02241  -0.02184  -2.23660
   Z75       -2.17766  -0.00005   0.00000  -0.01767  -0.01682  -2.19448
   X76        8.59221   0.00010   0.00000   0.02266   0.02254   8.61475
   Y76       -0.79317  -0.00014   0.00000  -0.02890  -0.02783  -0.82101
   Z76       -0.72157  -0.00004   0.00000  -0.00902  -0.00866  -0.73023
   X77       10.59522   0.00004   0.00000   0.01106   0.01103  10.60625
   Y77       -1.62879  -0.00008   0.00000  -0.02171  -0.02148  -1.65027
   Z77       -3.28380  -0.00009   0.00000  -0.02043  -0.01974  -3.30354
         Item               Value     Threshold  Converged?
 Maximum Force            0.000562     0.000450     NO 
 RMS     Force            0.000105     0.000300     YES
 Maximum Displacement     0.102358     0.001800     NO 
 RMS     Displacement     0.019701     0.001200     NO 
 Predicted change in Energy=-4.090175D-04
 GradGradGradGradGradGradGradGradGradGradGradGradGradGradGradGradGradGrad

 Leave Link  103 at Fri Feb  8 00:33:36 2019, MaxMem=   104857600 cpu:              21.2 elap:               0.9
 (Enter /home/xinyan/g16/l9999.exe)
 1\1\GINC-TSE4\Force\RM062X\6-31G(d)\C27H41N3O5S1\STEVETSE\08-Feb-2019\
 0\\#p M062X/6-31G* em=gd3 force int=ultrafine\\Title\\0,1\C,-4.94864,0
 .24079,-0.26636\C,-5.08855,-1.01441,-1.13299\C,-3.73622,-1.41647,-1.73
 38\C,-2.74377,-1.64755,-0.59891\C,-2.54422,-0.35713,0.2462\C,-3.90277,
 0.05059,0.83642\H,-3.82873,-2.31718,-2.35151\H,-5.47208,-1.8425,-0.522
 54\H,-5.81253,-0.84818,-1.93749\H,-4.64078,1.08127,-0.90427\H,-5.91834
 ,0.50617,0.16817\H,-3.11849,-2.43924,0.05531\H,-2.27093,0.42407,-0.478
 67\H,-4.23188,-0.71636,1.54912\H,-3.75916,0.98579,1.39107\H,-3.39327,-
 0.59723,-2.3808\N,-1.41083,-2.1065,-1.05383\C,-0.7472,-1.44542,-2.0298
 2\C,-0.71755,-2.93914,-0.24196\C,0.59995,-1.57471,-2.21056\H,-1.34199,
 -0.78464,-2.6472\C,0.63155,-3.11594,-0.35777\H,-1.29053,-3.41591,0.546
 06\C,1.36412,-2.35742,-1.30148\H,1.07424,-1.02442,-3.01245\H,1.12142,-
 3.75257,0.36558\N,2.70393,-2.36463,-1.31889\C,3.4605,-2.95265,-0.20655
 \H,3.32151,-4.03731,-0.17377\H,3.10443,-2.51743,0.73782\C,3.47922,-1.3
 233,-2.00988\H,3.71167,-1.64179,-3.03351\H,2.90644,-0.39254,-2.03448\N
 ,-1.42045,-0.42727,1.15769\S,-1.4567,-1.4034,2.3985\O,-2.53096,-2.4196
 7,2.33972\O,-0.09724,-1.96638,2.62391\C,-1.00383,2.71599,0.05642\C,-0.
 33004,2.01927,-0.95234\C,-0.86332,1.97078,-2.23857\C,-2.08574,2.57858,
 -2.52571\C,-2.77083,3.25077,-1.51564\C,-2.22649,3.32031,-0.23533\H,0.5
 8425,1.48032,-0.71008\H,-0.32243,1.44803,-3.02425\H,-2.50238,2.53052,-
 3.52748\H,-3.7291,3.71882,-1.7215\H,-2.76298,3.8406,0.55531\O,0.26912,
 1.636,1.8194\H,-0.29436,0.85831,1.53345\C,2.38014,0.20265,1.39148\O,2.
 03546,-0.18332,0.28749\O,2.09349,-0.43262,2.51541\H,1.34537,-1.07825,2
 .38011\C,3.2352,1.42726,1.61829\H,2.80258,1.96523,2.4668\H,4.23493,1.0
 9216,1.93\C,-0.4247,2.79369,1.454\H,-1.23628,3.02887,2.16284\H,0.29151
 ,3.62626,1.50716\C,-1.75696,-0.39248,3.84532\H,-0.99399,0.3898,3.85238
 \H,-2.75446,0.0423,3.75619\H,-1.68463,-1.01818,4.73592\C,3.31613,2.317
 89,0.38545\H,3.69508,1.7363,-0.46378\H,2.29981,2.62472,0.11407\C,4.191
 05,3.54649,0.61414\H,4.24605,4.16855,-0.28391\H,3.7927,4.16406,1.42598
 \H,5.21246,3.25952,0.8872\C,4.90215,-2.5476,-0.50139\H,5.51101,-2.5231
 8,0.40457\H,5.35662,-3.25412,-1.20353\C,4.7387,-1.172,-1.15237\H,4.546
 8,-0.41973,-0.38184\H,5.60675,-0.86192,-1.73771\\Version=ES64L-G16RevA
 .03\State=1-A\HF=-1991.3893435\RMSD=4.733e-09\RMSF=1.049e-04\Dipole=0.
 5978259,-0.1333566,-2.5681074\Quadrupole=10.5847195,-5.5337933,-5.0509
 262,-10.291797,-0.4353688,9.2388178\PG=C01 [X(C27H41N3O5S1)]\\@


 ... I FELL INTO A REVERIE ... THE ATOMS WERE GAMBOLING BEFORE MY EYES
 ... I SAW HOW TWO SMALL ONES UNITED TO FORM A PAIR;
 HOW THE LARGER ONES SEIZED TWO OF THE SMALLER ONES;
 HOW STILL LARGER ONES KEPT HOLD OF THREE OR FOUR
 SMALLER ONES ... I SAW HOW THE LARGER ONES FORMED A CHAIN ...
 THIS WAS THE ORIGIN OF THE STRUCTURE THEORY.

                                   -- C.F.KEKULE VON STRADONITZ
 Job cpu time:       0 days  1 hours 17 minutes  5.5 seconds.
 Elapsed time:       0 days  0 hours  3 minutes 13.7 seconds.
 File lengths (MBytes):  RWF=    216 Int=      0 D2E=      0 Chk=     25 Scr=      1
 Normal termination of Gaussian 16 at Fri Feb  8 00:33:37 2019.
