 Entering Gaussian System, Link 0=g16
 Input=C27N3H41SO5-161.gjf
 Output=C27N3H41SO5-161.log
 Initial command:
 /home/xinyan/g16/l1.exe "/local/home/tmp/Gau-32098.inp" -scrdir="/local/home/tmp/"
 Entering Link 1 = /home/xinyan/g16/l1.exe PID=     32099.
  
 Copyright (c) 1988,1990,1992,1993,1995,1998,2003,2009,2016,
            Gaussian, Inc.  All Rights Reserved.
  
 This is part of the Gaussian(R) 16 program.  It is based on
 the Gaussian(R) 09 system (copyright 2009, Gaussian, Inc.),
 the Gaussian(R) 03 system (copyright 2003, Gaussian, Inc.),
 the Gaussian(R) 98 system (copyright 1998, Gaussian, Inc.),
 the Gaussian(R) 94 system (copyright 1995, Gaussian, Inc.),
 the Gaussian 92(TM) system (copyright 1992, Gaussian, Inc.),
 the Gaussian 90(TM) system (copyright 1990, Gaussian, Inc.),
 the Gaussian 88(TM) system (copyright 1988, Gaussian, Inc.),
 the Gaussian 86(TM) system (copyright 1986, Carnegie Mellon
 University), and the Gaussian 82(TM) system (copyright 1983,
 Carnegie Mellon University). Gaussian is a federally registered
 trademark of Gaussian, Inc.
  
 This software contains proprietary and confidential information,
 including trade secrets, belonging to Gaussian, Inc.
  
 This software is provided under written license and may be
 used, copied, transmitted, or stored only in accord with that
 written license.
  
 The following legend is applicable only to US Government
 contracts under FAR:
  
                    RESTRICTED RIGHTS LEGEND
  
 Use, reproduction and disclosure by the US Government is
 subject to restrictions as set forth in subparagraphs (a)
 and (c) of the Commercial Computer Software - Restricted
 Rights clause in FAR 52.227-19.
  
 Gaussian, Inc.
 340 Quinnipiac St., Bldg. 40, Wallingford CT 06492
  
  
 ---------------------------------------------------------------
 Warning -- This program may not be used in any manner that
 competes with the business of Gaussian, Inc. or will provide
 assistance to any competitor of Gaussian, Inc.  The licensee
 of this program is prohibited from giving any competitor of
 Gaussian, Inc. access to this program.  By using this program,
 the user acknowledges that Gaussian, Inc. is engaged in the
 business of creating and licensing software in the field of
 computational chemistry and represents and warrants to the
 licensee that it is not a competitor of Gaussian, Inc. and that
 it will not use this program in any manner prohibited above.
 ---------------------------------------------------------------
  

 Cite this work as:
 Gaussian 16, Revision A.03,
 M. J. Frisch, G. W. Trucks, H. B. Schlegel, G. E. Scuseria, 
 M. A. Robb, J. R. Cheeseman, G. Scalmani, V. Barone, 
 G. A. Petersson, H. Nakatsuji, X. Li, M. Caricato, A. V. Marenich, 
 J. Bloino, B. G. Janesko, R. Gomperts, B. Mennucci, H. P. Hratchian, 
 J. V. Ortiz, A. F. Izmaylov, J. L. Sonnenberg, D. Williams-Young, 
 F. Ding, F. Lipparini, F. Egidi, J. Goings, B. Peng, A. Petrone, 
 T. Henderson, D. Ranasinghe, V. G. Zakrzewski, J. Gao, N. Rega, 
 G. Zheng, W. Liang, M. Hada, M. Ehara, K. Toyota, R. Fukuda, 
 J. Hasegawa, M. Ishida, T. Nakajima, Y. Honda, O. Kitao, H. Nakai, 
 T. Vreven, K. Throssell, J. A. Montgomery, Jr., J. E. Peralta, 
 F. Ogliaro, M. J. Bearpark, J. J. Heyd, E. N. Brothers, K. N. Kudin, 
 V. N. Staroverov, T. A. Keith, R. Kobayashi, J. Normand, 
 K. Raghavachari, A. P. Rendell, J. C. Burant, S. S. Iyengar, 
 J. Tomasi, M. Cossi, J. M. Millam, M. Klene, C. Adamo, R. Cammi, 
 J. W. Ochterski, R. L. Martin, K. Morokuma, O. Farkas, 
 J. B. Foresman, and D. J. Fox, Gaussian, Inc., Wallingford CT, 2016.
 
 ******************************************
 Gaussian 16:  ES64L-G16RevA.03 25-Dec-2016
                 7-Feb-2019 
 ******************************************
 %nproc=24
 Will use up to   24 processors via shared memory.
 ------------------------------------------
 #p M062X/6-31G* em=gd3 force int=ultrafine
 ------------------------------------------
 1/10=7,30=1,38=1/1,3;
 2/12=2,17=6,18=5,40=1/2;
 3/5=1,6=6,7=1,11=2,25=1,30=1,71=1,74=-55,75=-5,124=31/1,2,3;
 4//1;
 5/5=2,38=5/2;
 6/7=2,8=2,9=2,10=2,28=1/1;
 7/29=1/1,2,3,16;
 1/10=7,30=1/3;
 99//99;
 Leave Link    1 at Thu Feb  7 17:25:33 2019, MaxMem=           0 cpu:               2.5 elap:               0.1
 (Enter /home/xinyan/g16/l101.exe)
 -----
 Title
 -----
 Symbolic Z-matrix:
 Charge =  0 Multiplicity = 1
 C                    -4.90669   0.22161  -0.50729 
 C                    -5.05574  -1.04878  -1.3497 
 C                    -3.70258  -1.4818   -1.92677 
 C                    -2.73136  -1.7132   -0.77495 
 C                    -2.53615  -0.41678   0.05415 
 C                    -3.88667   0.03732   0.62062 
 H                    -3.79777  -2.39019  -2.53138 
 H                    -5.45881  -1.85899  -0.72805 
 H                    -5.76785  -0.88632  -2.16488 
 H                    -4.57917   1.04481  -1.15564 
 H                    -5.87613   0.50917  -0.08737 
 H                    -3.13132  -2.4899   -0.11569 
 H                    -2.19452   0.35878  -0.64361 
 H                    -4.25332  -0.70514   1.33701 
 H                    -3.73288   0.98094   1.15443 
 H                    -3.3355   -0.67906  -2.58043 
 N                    -1.39168  -2.1822   -1.18544 
 C                    -0.68757  -1.50559  -2.13043 
 C                    -0.7131   -2.97142  -0.30938 
 C                     0.67011  -1.56144  -2.20306 
 H                    -1.26712  -0.89161  -2.80857 
 C                     0.64435  -3.05318  -0.29946 
 H                    -1.31957  -3.48019   0.43202 
 C                     1.40325  -2.246    -1.18833 
 H                     1.17469  -1.00126  -2.97831 
 H                     1.11503  -3.6389    0.47745 
 N                     2.7238   -2.1423   -1.08326 
 C                     3.43329  -2.57177   0.13229 
 H                     3.31051  -3.64682   0.29029 
 H                     3.02233  -2.01125   0.98548 
 C                     3.47128  -1.10302  -1.80124 
 H                     3.71962  -1.44991  -2.81185 
 H                     2.8551   -0.20154  -1.86413 
 N                    -1.45433  -0.52839   1.01963 
 S                    -1.56472  -1.40602   2.38718 
 O                    -2.76525  -2.2449    2.31127 
 O                    -0.28362  -2.07982   2.61928 
 C                    -0.73367   2.49932   0.34931 
 C                    -0.26367   2.09382  -0.90956 
 C                    -1.05633   2.24022  -2.04578 
 C                    -2.33754   2.78582  -1.95726 
 C                    -2.81979   3.18296  -0.71363 
 C                    -2.01914   3.04219   0.42045 
 H                     0.70373   1.61111  -0.97289 
 H                    -0.66505   1.93164  -3.01272 
 H                    -2.95031   2.9039   -2.84679 
 H                    -3.81613   3.60772  -0.62336 
 H                    -2.40261   3.36807   1.38567 
 O                     0.55501   1.27535   2.1621 
 H                    -0.45223  -0.29086   0.7358 
 C                     1.66067   0.53809   1.48584 
 O                     1.22864  -0.01211   0.36824 
 O                     2.02888  -0.39581   2.48486 
 H                     1.30297  -1.04509   2.51 
 C                     2.90063   1.46754   1.3845 
 H                     2.8946    2.1555    2.24 
 H                     3.76802   0.81482   1.54145 
 C                     0.12228   2.49278   1.6189 
 H                    -0.48217   2.96122   2.4066 
 H                     0.97848   3.16384   1.45547 
 C                    -1.76438  -0.21794   3.69445 
 H                    -0.89124   0.43814   3.64074 
 H                    -2.69038   0.33137   3.51607 
 H                    -1.80983  -0.76395   4.63809 
 C                     3.10148   2.23419   0.08041 
 H                     3.00579   1.5352   -0.75842 
 H                     2.31537   2.98213  -0.0711 
 C                     4.46224   2.92723   0.03318 
 H                     4.60842   3.47286  -0.90422 
 H                     4.5648    3.64171   0.85694 
 H                     5.27727   2.20024   0.1305 
 C                     4.87817  -2.18271  -0.16253 
 H                     5.46163  -2.06377   0.75233 
 H                     5.35678  -2.94705  -0.78436 
 C                     4.71793  -0.87394  -0.94076 
 H                     4.5181   -0.05913  -0.24072 
 H                     5.59266  -0.61159  -1.53964 
 
 ITRead=  0  0  0  0  0  0  0  0  0  0  0  0  0  0  0  0  0  0  0  0
 ITRead=  0  0  0  0  0  0  0  0  0  0  0  0  0  0  0  0  0  0  0  0
 ITRead=  0  0  0  0  0  0  0  0  0  0  0  0  0  0  0  0  0  0  0  0
 ITRead=  0  0  0  0  0  0  0  0  0  0  0  0  0  0  0  0  0
 MicOpt= -1 -1 -1 -1 -1 -1 -1 -1 -1 -1 -1 -1 -1 -1 -1 -1 -1 -1 -1 -1
 MicOpt= -1 -1 -1 -1 -1 -1 -1 -1 -1 -1 -1 -1 -1 -1 -1 -1 -1 -1 -1 -1
 MicOpt= -1 -1 -1 -1 -1 -1 -1 -1 -1 -1 -1 -1 -1 -1 -1 -1 -1 -1 -1 -1
 MicOpt= -1 -1 -1 -1 -1 -1 -1 -1 -1 -1 -1 -1 -1 -1 -1 -1 -1
 NAtoms=     77 NQM=       77 NQMF=       0 NMMI=      0 NMMIF=      0
                NMic=       0 NMicF=      0.
                    Isotopes and Nuclear Properties:
 (Nuclear quadrupole moments (NQMom) in fm**2, nuclear magnetic moments (NMagM)
  in nuclear magnetons)

  Atom         1           2           3           4           5           6           7           8           9          10
 IAtWgt=          12          12          12          12          12          12           1           1           1           1
 AtmWgt=  12.0000000  12.0000000  12.0000000  12.0000000  12.0000000  12.0000000   1.0078250   1.0078250   1.0078250   1.0078250
 NucSpn=           0           0           0           0           0           0           1           1           1           1
 AtZEff=  -0.0000000  -0.0000000  -0.0000000  -0.0000000  -0.0000000  -0.0000000  -0.0000000  -0.0000000  -0.0000000  -0.0000000
 NQMom=    0.0000000   0.0000000   0.0000000   0.0000000   0.0000000   0.0000000   0.0000000   0.0000000   0.0000000   0.0000000
 NMagM=    0.0000000   0.0000000   0.0000000   0.0000000   0.0000000   0.0000000   2.7928460   2.7928460   2.7928460   2.7928460
 AtZNuc=   6.0000000   6.0000000   6.0000000   6.0000000   6.0000000   6.0000000   1.0000000   1.0000000   1.0000000   1.0000000

  Atom        11          12          13          14          15          16          17          18          19          20
 IAtWgt=           1           1           1           1           1           1          14          12          12          12
 AtmWgt=   1.0078250   1.0078250   1.0078250   1.0078250   1.0078250   1.0078250  14.0030740  12.0000000  12.0000000  12.0000000
 NucSpn=           1           1           1           1           1           1           2           0           0           0
 AtZEff=  -0.0000000  -0.0000000  -0.0000000  -0.0000000  -0.0000000  -0.0000000  -0.0000000  -0.0000000  -0.0000000  -0.0000000
 NQMom=    0.0000000   0.0000000   0.0000000   0.0000000   0.0000000   0.0000000   2.0440000   0.0000000   0.0000000   0.0000000
 NMagM=    2.7928460   2.7928460   2.7928460   2.7928460   2.7928460   2.7928460   0.4037610   0.0000000   0.0000000   0.0000000
 AtZNuc=   1.0000000   1.0000000   1.0000000   1.0000000   1.0000000   1.0000000   7.0000000   6.0000000   6.0000000   6.0000000

  Atom        21          22          23          24          25          26          27          28          29          30
 IAtWgt=           1          12           1          12           1           1          14          12           1           1
 AtmWgt=   1.0078250  12.0000000   1.0078250  12.0000000   1.0078250   1.0078250  14.0030740  12.0000000   1.0078250   1.0078250
 NucSpn=           1           0           1           0           1           1           2           0           1           1
 AtZEff=  -0.0000000  -0.0000000  -0.0000000  -0.0000000  -0.0000000  -0.0000000  -0.0000000  -0.0000000  -0.0000000  -0.0000000
 NQMom=    0.0000000   0.0000000   0.0000000   0.0000000   0.0000000   0.0000000   2.0440000   0.0000000   0.0000000   0.0000000
 NMagM=    2.7928460   0.0000000   2.7928460   0.0000000   2.7928460   2.7928460   0.4037610   0.0000000   2.7928460   2.7928460
 AtZNuc=   1.0000000   6.0000000   1.0000000   6.0000000   1.0000000   1.0000000   7.0000000   6.0000000   1.0000000   1.0000000

  Atom        31          32          33          34          35          36          37          38          39          40
 IAtWgt=          12           1           1          14          32          16          16          12          12          12
 AtmWgt=  12.0000000   1.0078250   1.0078250  14.0030740  31.9720718  15.9949146  15.9949146  12.0000000  12.0000000  12.0000000
 NucSpn=           0           1           1           2           0           0           0           0           0           0
 AtZEff=  -0.0000000  -0.0000000  -0.0000000  -0.0000000  -0.0000000  -0.0000000  -0.0000000  -0.0000000  -0.0000000  -0.0000000
 NQMom=    0.0000000   0.0000000   0.0000000   2.0440000   0.0000000   0.0000000   0.0000000   0.0000000   0.0000000   0.0000000
 NMagM=    0.0000000   2.7928460   2.7928460   0.4037610   0.0000000   0.0000000   0.0000000   0.0000000   0.0000000   0.0000000
 AtZNuc=   6.0000000   1.0000000   1.0000000   7.0000000  16.0000000   8.0000000   8.0000000   6.0000000   6.0000000   6.0000000

  Atom        41          42          43          44          45          46          47          48          49          50
 IAtWgt=          12          12          12           1           1           1           1           1          16           1
 AtmWgt=  12.0000000  12.0000000  12.0000000   1.0078250   1.0078250   1.0078250   1.0078250   1.0078250  15.9949146   1.0078250
 NucSpn=           0           0           0           1           1           1           1           1           0           1
 AtZEff=  -0.0000000  -0.0000000  -0.0000000  -0.0000000  -0.0000000  -0.0000000  -0.0000000  -0.0000000  -0.0000000  -0.0000000
 NQMom=    0.0000000   0.0000000   0.0000000   0.0000000   0.0000000   0.0000000   0.0000000   0.0000000   0.0000000   0.0000000
 NMagM=    0.0000000   0.0000000   0.0000000   2.7928460   2.7928460   2.7928460   2.7928460   2.7928460   0.0000000   2.7928460
 AtZNuc=   6.0000000   6.0000000   6.0000000   1.0000000   1.0000000   1.0000000   1.0000000   1.0000000   8.0000000   1.0000000

  Atom        51          52          53          54          55          56          57          58          59          60
 IAtWgt=          12          16          16           1          12           1           1          12           1           1
 AtmWgt=  12.0000000  15.9949146  15.9949146   1.0078250  12.0000000   1.0078250   1.0078250  12.0000000   1.0078250   1.0078250
 NucSpn=           0           0           0           1           0           1           1           0           1           1
 AtZEff=  -0.0000000  -0.0000000  -0.0000000  -0.0000000  -0.0000000  -0.0000000  -0.0000000  -0.0000000  -0.0000000  -0.0000000
 NQMom=    0.0000000   0.0000000   0.0000000   0.0000000   0.0000000   0.0000000   0.0000000   0.0000000   0.0000000   0.0000000
 NMagM=    0.0000000   0.0000000   0.0000000   2.7928460   0.0000000   2.7928460   2.7928460   0.0000000   2.7928460   2.7928460
 AtZNuc=   6.0000000   8.0000000   8.0000000   1.0000000   6.0000000   1.0000000   1.0000000   6.0000000   1.0000000   1.0000000

  Atom        61          62          63          64          65          66          67          68          69          70
 IAtWgt=          12           1           1           1          12           1           1          12           1           1
 AtmWgt=  12.0000000   1.0078250   1.0078250   1.0078250  12.0000000   1.0078250   1.0078250  12.0000000   1.0078250   1.0078250
 NucSpn=           0           1           1           1           0           1           1           0           1           1
 AtZEff=  -0.0000000  -0.0000000  -0.0000000  -0.0000000  -0.0000000  -0.0000000  -0.0000000  -0.0000000  -0.0000000  -0.0000000
 NQMom=    0.0000000   0.0000000   0.0000000   0.0000000   0.0000000   0.0000000   0.0000000   0.0000000   0.0000000   0.0000000
 NMagM=    0.0000000   2.7928460   2.7928460   2.7928460   0.0000000   2.7928460   2.7928460   0.0000000   2.7928460   2.7928460
 AtZNuc=   6.0000000   1.0000000   1.0000000   1.0000000   6.0000000   1.0000000   1.0000000   6.0000000   1.0000000   1.0000000

  Atom        71          72          73          74          75          76          77
 IAtWgt=           1          12           1           1          12           1           1
 AtmWgt=   1.0078250  12.0000000   1.0078250   1.0078250  12.0000000   1.0078250   1.0078250
 NucSpn=           1           0           1           1           0           1           1
 AtZEff=  -0.0000000  -0.0000000  -0.0000000  -0.0000000  -0.0000000  -0.0000000  -0.0000000
 NQMom=    0.0000000   0.0000000   0.0000000   0.0000000   0.0000000   0.0000000   0.0000000
 NMagM=    2.7928460   0.0000000   2.7928460   2.7928460   0.0000000   2.7928460   2.7928460
 AtZNuc=   1.0000000   6.0000000   1.0000000   1.0000000   6.0000000   1.0000000   1.0000000
 Leave Link  101 at Thu Feb  7 17:25:33 2019, MaxMem=   104857600 cpu:               5.2 elap:               0.2
 (Enter /home/xinyan/g16/l103.exe)

 GradGradGradGradGradGradGradGradGradGradGradGradGradGradGradGradGradGrad
 Berny optimization.
 Initialization pass.
 Trust Radius=3.00D-01 FncErr=1.00D-07 GrdErr=1.00D-07 EigMax=2.50D+02 EigMin=1.00D-04
 Number of steps in this run=      2 maximum allowed number of steps=      2.
 GradGradGradGradGradGradGradGradGradGradGradGradGradGradGradGradGradGrad

 Leave Link  103 at Thu Feb  7 17:25:33 2019, MaxMem=   104857600 cpu:               1.6 elap:               0.1
 (Enter /home/xinyan/g16/l202.exe)
 Stoichiometry    C27H41N3O5S
 Framework group  C1[X(C27H41N3O5S)]
 Deg. of freedom   225
 Full point group                 C1      NOp   1
 Largest Abelian subgroup         C1      NOp   1
 Largest concise Abelian subgroup C1      NOp   1
                         Standard orientation:                         
 ---------------------------------------------------------------------
 Center     Atomic      Atomic             Coordinates (Angstroms)
 Number     Number       Type             X           Y           Z
 ---------------------------------------------------------------------
      1          6           0       -4.783564    0.303336   -0.684568
      2          6           0       -4.910273   -1.011829   -1.459194
      3          6           0       -3.551161   -1.446548   -2.020793
      4          6           0       -2.570021   -1.598027   -0.864108
      5          6           0       -2.397762   -0.256621   -0.104386
      6          6           0       -3.754719    0.198648    0.445521
      7          1           0       -3.630389   -2.386839   -2.576996
      8          1           0       -5.293631   -1.796734   -0.794126
      9          1           0       -5.629371   -0.906434   -2.277608
     10          1           0       -4.476131    1.098286   -1.376540
     11          1           0       -5.756770    0.592485   -0.274566
     12          1           0       -2.950787   -2.347459   -0.163234
     13          1           0       -2.075468    0.488486   -0.843314
     14          1           0       -4.102624   -0.512954    1.201484
     15          1           0       -3.617961    1.171635    0.928861
     16          1           0       -3.203779   -0.671496   -2.717235
     17          7           0       -1.222868   -2.060300   -1.257413
     18          6           0       -0.537283   -1.419431   -2.240184
     19          6           0       -0.524069   -2.789004   -0.345553
     20          6           0        0.820908   -1.451298   -2.317587
     21          1           0       -1.132536   -0.853406   -2.945885
     22          6           0        0.834812   -2.842461   -0.339174
     23          1           0       -1.116448   -3.270868    0.424655
     24          6           0        1.572740   -2.067197   -1.272976
     25          1           0        1.310201   -0.921936   -3.123678
     26          1           0        1.321095   -3.377363    0.464321
     27          7           0        2.891342   -1.931297   -1.180970
     28          6           0        3.615197   -2.282564    0.051112
     29          1           0        3.515376   -3.350245    0.265272
     30          1           0        3.196727   -1.687017    0.876467
     31          6           0        3.613856   -0.915659   -1.956069
     32          1           0        3.864599   -1.309392   -2.948762
     33          1           0        2.978909   -0.031401   -2.062034
     34          7           0       -1.309387   -0.295913    0.859377
     35         16           0       -1.395268   -1.103462    2.271149
     36          8           0       -2.578563   -1.969440    2.245649
     37          8           0       -0.099463   -1.738065    2.530502
     38          6           0       -0.654519    2.706989    0.029055
     39          6           0       -0.182111    2.246372   -1.209794
     40          6           0       -0.982904    2.317431   -2.347520
     41          6           0       -2.274679    2.840669   -2.280048
     42          6           0       -2.759233    3.291899   -1.055916
     43          6           0       -1.950578    3.226512    0.079336
     44          1           0        0.794744    1.780839   -1.253572
     45          1           0       -0.589840    1.967128   -3.299404
     46          1           0       -2.893890    2.899919   -3.170981
     47          1           0       -3.763699    3.700380   -0.982068
     48          1           0       -2.336198    3.594159    1.028562
     49          8           0        0.667579    1.605252    1.895398
     50          1           0       -0.313736   -0.053061    0.557902
     51          6           0        1.785066    0.856576    1.251914
     52          8           0        1.359291    0.240434    0.166795
     53          8           0        2.177125   -0.016527    2.295834
     54          1           0        1.464899   -0.678285    2.358714
     55          6           0        3.005087    1.804589    1.095489
     56          1           0        2.988836    2.535750    1.914236
     57          1           0        3.886490    1.178704    1.281068
     58          6           0        0.207283    2.783783    1.292365
     59          1           0       -0.403037    3.280053    2.058193
     60          1           0        1.048676    3.462766    1.089510
     61          6           0       -1.613329    0.146539    3.516260
     62          1           0       -0.754180    0.816603    3.423655
     63          1           0       -2.551293    0.666868    3.314971
     64          1           0       -1.643104   -0.350581    4.487154
     65          6           0        3.183995    2.506468   -0.247679
     66          1           0        3.098854    1.763086   -1.048625
     67          1           0        2.381913    3.229364   -0.433221
     68          6           0        4.529921    3.223708   -0.338515
     69          1           0        4.660441    3.722824   -1.303734
     70          1           0        4.621541    3.981913    0.446540
     71          1           0        5.360231    2.519506   -0.208340
     72          6           0        5.050349   -1.879966   -0.271717
     73          1           0        5.635480   -1.701847    0.632405
     74          1           0        5.541738   -2.665632   -0.855857
     75          6           0        4.859502   -0.616880   -1.115749
     76          1           0        4.646151    0.228917   -0.457712
     77          1           0        5.725832   -0.368191   -1.732403
 ---------------------------------------------------------------------
 Rotational constants (GHZ):           0.1559439           0.0999608           0.0904854
 Leave Link  202 at Thu Feb  7 17:25:33 2019, MaxMem=   104857600 cpu:               2.6 elap:               0.1
 (Enter /home/xinyan/g16/l301.exe)
 Standard basis: 6-31G(d) (6D, 7F)
 Ernie: Thresh=  0.10000D-02 Tol=  0.10000D-05 Strict=F.
 There are   626 symmetry adapted cartesian basis functions of A   symmetry.
 There are   626 symmetry adapted basis functions of A   symmetry.
   626 basis functions,  1196 primitive gaussians,   626 cartesian basis functions
   140 alpha electrons      140 beta electrons
       nuclear repulsion energy      4989.1280994354 Hartrees.
 IExCor= 4336 DFT=T Ex+Corr=M062X ExCW=0 ScaHFX=  0.540000
 ScaDFX=  1.000000  1.000000  1.000000  1.000000 ScalE2=  1.000000  1.000000
 IRadAn=      5 IRanWt=     -1 IRanGd=            0 ICorTp=0 IEmpDi=131
 NAtoms=   77 NActive=   77 NUniq=   77 SFac= 1.00D+00 NAtFMM=   60 NAOKFM=T Big=T
 Integral buffers will be    131072 words long.
 Raffenetti 2 integral format.
 Two-electron integral symmetry is turned on.
 R6Disp:  Grimme-D3 Dispersion energy=       -0.0108178134 Hartrees.
 Nuclear repulsion after empirical dispersion term =     4989.1172816220 Hartrees.
 Leave Link  301 at Thu Feb  7 17:25:33 2019, MaxMem=   104857600 cpu:               3.0 elap:               0.1
 (Enter /home/xinyan/g16/l302.exe)
 NPDir=0 NMtPBC=     1 NCelOv=     1 NCel=       1 NClECP=     1 NCelD=      1
         NCelK=      1 NCelE2=     1 NClLst=     1 CellRange=     0.0.
 One-electron integrals computed using PRISM.
 One-electron integral symmetry used in STVInt
 PrsmSu:  requested number of processors reduced to:  23 ShMem   1 Linda.
 NBasis=   626 RedAO= T EigKep=  4.46D-04  NBF=   626
 NBsUse=   626 1.00D-06 EigRej= -1.00D+00 NBFU=   626
 Precomputing XC quadrature grid using
 IXCGrd= 4 IRadAn=           5 IRanWt=          -1 IRanGd=           0 AccXCQ= 0.00D+00.
 Generated NRdTot=       0 NPtTot=           0 NUsed=           0 NTot=          32
 NSgBfM=   621   621   621   621   621 MxSgAt=    77 MxSgA2=    77.
 Leave Link  302 at Thu Feb  7 17:25:37 2019, MaxMem=   104857600 cpu:              80.5 elap:               3.5
 (Enter /home/xinyan/g16/l303.exe)
 DipDrv:  MaxL=1.
 Leave Link  303 at Thu Feb  7 17:25:37 2019, MaxMem=   104857600 cpu:               6.3 elap:               0.3
 (Enter /home/xinyan/g16/l401.exe)
 ExpMin= 1.17D-01 ExpMax= 2.19D+04 ExpMxC= 3.30D+03 IAcc=3 IRadAn=         5 AccDes= 0.00D+00
 Harris functional with IExCor= 1009 and IRadAn=       5 diagonalized for initial guess.
 HarFok:  IExCor= 1009 AccDes= 0.00D+00 IRadAn=         5 IDoV= 1 UseB2=F ITyADJ=14
 ICtDFT=  3500011 ScaDFX=  1.000000  1.000000  1.000000  1.000000
 FoFCou: FMM=F IPFlag=           0 FMFlag=      100000 FMFlg1=        2001
         NFxFlg=           0 DoJE=T BraDBF=F KetDBF=T FulRan=T
         wScrn=  0.000000 ICntrl=       500 IOpCl=  0 I1Cent=   200000004 NGrid=           0
         NMat0=    1 NMatS0=      1 NMatT0=    0 NMatD0=    1 NMtDS0=    0 NMtDT0=    0
 Petite list used in FoFCou.
 Harris En= -1990.52979000903    
 JPrj=0 DoOrth=F DoCkMO=F.
 Leave Link  401 at Thu Feb  7 17:25:41 2019, MaxMem=   104857600 cpu:              99.4 elap:               4.2
 (Enter /home/xinyan/g16/l502.exe)
 Integral symmetry usage will be decided dynamically.
 Closed shell SCF:
 Using DIIS extrapolation, IDIIS=  1040.
 NGot=   104857600 LenX=   104051656 LenY=   103659154
 Requested convergence on RMS density matrix=1.00D-08 within 128 cycles.
 Requested convergence on MAX density matrix=1.00D-06.
 Requested convergence on             energy=1.00D-06.
 No special actions if energy rises.
 Fock matrices will be formed incrementally for  20 cycles.
 Integral accuracy reduced to 1.0D-05 until final iterations.

 Cycle   1  Pass 0  IDiag  1:
 FoFJK:  IHMeth= 1 ICntrl=       0 DoSepK=F KAlg= 0 I1Cent=           0 FoldK=F
 IRaf= 990000000 NMat=       1 IRICut=       1 DoRegI=T DoRafI=F ISym2E= 0 IDoP0=0 IntGTp=1.
 FoFCou: FMM=T IPFlag=           0 FMFlag=      100000 FMFlg1=        2001
         NFxFlg=           0 DoJE=F BraDBF=F KetDBF=F FulRan=T
         wScrn=  0.000000 ICntrl=         0 IOpCl=  0 I1Cent=           0 NGrid=           0
         NMat0=    1 NMatS0=      1 NMatT0=    0 NMatD0=    1 NMtDS0=    0 NMtDT0=    0
 Symmetry not used in FoFCou.
 FMM levels:  10  Number of levels for PrismC:   9
 E= -1990.30159605983    
 DIIS: error= 2.07D-02 at cycle   1 NSaved=   1.
 NSaved= 1 IEnMin= 1 EnMin= -1990.30159605983     IErMin= 1 ErrMin= 2.07D-02
 ErrMax= 2.07D-02  0.00D+00 EMaxC= 1.00D-01 BMatC= 1.24D+00 BMatP= 1.24D+00
 IDIUse=3 WtCom= 7.93D-01 WtEn= 2.07D-01
 Coeff-Com:  0.100D+01
 Coeff-En:   0.100D+01
 Coeff:      0.100D+01
 Gap=     0.368 Goal=   None    Shift=    0.000
 GapD=    0.368 DampG=1.000 DampE=0.500 DampFc=0.5000 IDamp=-1.
 Damping current iteration by 5.00D-01
 RMSDP=3.43D-03 MaxDP=3.45D-01              OVMax= 1.96D-01

 Cycle   2  Pass 0  IDiag  1:
 RMSU=  1.71D-03    CP:  9.88D-01
 E= -1990.81371437948     Delta-E=       -0.512118319652 Rises=F Damp=T
 DIIS: error= 6.88D-03 at cycle   2 NSaved=   2.
 NSaved= 2 IEnMin= 2 EnMin= -1990.81371437948     IErMin= 2 ErrMin= 6.88D-03
 ErrMax= 6.88D-03  0.00D+00 EMaxC= 1.00D-01 BMatC= 9.27D-02 BMatP= 1.24D+00
 IDIUse=3 WtCom= 9.31D-01 WtEn= 6.88D-02
 Coeff-Com: -0.292D-01 0.103D+01
 Coeff-En:   0.000D+00 0.100D+01
 Coeff:     -0.272D-01 0.103D+01
 Gap=     0.264 Goal=   None    Shift=    0.000
 RMSDP=8.53D-04 MaxDP=7.82D-02 DE=-5.12D-01 OVMax= 1.21D-01

 Cycle   3  Pass 0  IDiag  1:
 RMSU=  8.43D-04    CP:  9.81D-01  9.47D-01
 E= -1991.31808620957     Delta-E=       -0.504371830086 Rises=F Damp=F
 DIIS: error= 6.40D-03 at cycle   3 NSaved=   3.
 NSaved= 3 IEnMin= 3 EnMin= -1991.31808620957     IErMin= 3 ErrMin= 6.40D-03
 ErrMax= 6.40D-03  0.00D+00 EMaxC= 1.00D-01 BMatC= 4.91D-02 BMatP= 9.27D-02
 IDIUse=3 WtCom= 9.36D-01 WtEn= 6.40D-02
 Coeff-Com: -0.715D-01 0.440D+00 0.632D+00
 Coeff-En:   0.000D+00 0.000D+00 0.100D+01
 Coeff:     -0.669D-01 0.412D+00 0.655D+00
 Gap=     0.252 Goal=   None    Shift=    0.000
 RMSDP=5.08D-04 MaxDP=3.83D-02 DE=-5.04D-01 OVMax= 5.89D-02

 Cycle   4  Pass 0  IDiag  1:
 RMSU=  3.37D-04    CP:  9.84D-01  1.05D+00  6.05D-01
 E= -1991.34834451909     Delta-E=       -0.030258309523 Rises=F Damp=F
 DIIS: error= 4.00D-03 at cycle   4 NSaved=   4.
 NSaved= 4 IEnMin= 4 EnMin= -1991.34834451909     IErMin= 4 ErrMin= 4.00D-03
 ErrMax= 4.00D-03  0.00D+00 EMaxC= 1.00D-01 BMatC= 1.19D-02 BMatP= 4.91D-02
 IDIUse=3 WtCom= 9.60D-01 WtEn= 4.00D-02
 Coeff-Com: -0.287D-01 0.920D-01 0.358D+00 0.579D+00
 Coeff-En:   0.000D+00 0.000D+00 0.204D+00 0.796D+00
 Coeff:     -0.275D-01 0.883D-01 0.351D+00 0.588D+00
 Gap=     0.231 Goal=   None    Shift=    0.000
 RMSDP=2.04D-04 MaxDP=1.49D-02 DE=-3.03D-02 OVMax= 2.76D-02

 Cycle   5  Pass 0  IDiag  1:
 RMSU=  8.60D-05    CP:  9.83D-01  1.04D+00  7.33D-01  5.63D-01
 E= -1991.35819920827     Delta-E=       -0.009854689176 Rises=F Damp=F
 DIIS: error= 1.03D-03 at cycle   5 NSaved=   5.
 NSaved= 5 IEnMin= 5 EnMin= -1991.35819920827     IErMin= 5 ErrMin= 1.03D-03
 ErrMax= 1.03D-03  0.00D+00 EMaxC= 1.00D-01 BMatC= 5.77D-04 BMatP= 1.19D-02
 IDIUse=3 WtCom= 9.90D-01 WtEn= 1.03D-02
 Coeff-Com: -0.935D-02 0.214D-01 0.133D+00 0.285D+00 0.570D+00
 Coeff-En:   0.000D+00 0.000D+00 0.000D+00 0.000D+00 0.100D+01
 Coeff:     -0.925D-02 0.212D-01 0.131D+00 0.282D+00 0.575D+00
 Gap=     0.231 Goal=   None    Shift=    0.000
 RMSDP=5.06D-05 MaxDP=3.67D-03 DE=-9.85D-03 OVMax= 8.65D-03

 Cycle   6  Pass 0  IDiag  1:
 RMSU=  2.71D-05    CP:  9.83D-01  1.04D+00  7.32D-01  6.36D-01  5.96D-01
 E= -1991.35870187199     Delta-E=       -0.000502663723 Rises=F Damp=F
 DIIS: error= 3.36D-04 at cycle   6 NSaved=   6.
 NSaved= 6 IEnMin= 6 EnMin= -1991.35870187199     IErMin= 6 ErrMin= 3.36D-04
 ErrMax= 3.36D-04  0.00D+00 EMaxC= 1.00D-01 BMatC= 5.69D-05 BMatP= 5.77D-04
 IDIUse=3 WtCom= 9.97D-01 WtEn= 3.36D-03
 Coeff-Com: -0.184D-02 0.194D-02 0.299D-01 0.827D-01 0.293D+00 0.594D+00
 Coeff-En:   0.000D+00 0.000D+00 0.000D+00 0.000D+00 0.000D+00 0.100D+01
 Coeff:     -0.183D-02 0.194D-02 0.298D-01 0.824D-01 0.292D+00 0.596D+00
 Gap=     0.232 Goal=   None    Shift=    0.000
 RMSDP=1.49D-05 MaxDP=9.08D-04 DE=-5.03D-04 OVMax= 2.37D-03

 Cycle   7  Pass 0  IDiag  1:
 RMSU=  9.41D-06    CP:  9.83D-01  1.04D+00  7.34D-01  6.36D-01  6.79D-01
                    CP:  6.78D-01
 E= -1991.35875558554     Delta-E=       -0.000053713553 Rises=F Damp=F
 DIIS: error= 5.70D-05 at cycle   7 NSaved=   7.
 NSaved= 7 IEnMin= 7 EnMin= -1991.35875558554     IErMin= 7 ErrMin= 5.70D-05
 ErrMax= 5.70D-05  0.00D+00 EMaxC= 1.00D-01 BMatC= 3.94D-06 BMatP= 5.69D-05
 IDIUse=1 WtCom= 1.00D+00 WtEn= 0.00D+00
 Coeff-Com:  0.168D-03-0.133D-02-0.134D-02 0.611D-02 0.718D-01 0.258D+00
 Coeff-Com:  0.666D+00
 Coeff:      0.168D-03-0.133D-02-0.134D-02 0.611D-02 0.718D-01 0.258D+00
 Coeff:      0.666D+00
 Gap=     0.231 Goal=   None    Shift=    0.000
 RMSDP=4.49D-06 MaxDP=2.53D-04 DE=-5.37D-05 OVMax= 5.19D-04

 Initial convergence to 1.0D-05 achieved.  Increase integral accuracy.
 Cycle   8  Pass 1  IDiag  1:
 E= -1991.35894268835     Delta-E=       -0.000187102802 Rises=F Damp=F
 DIIS: error= 2.11D-04 at cycle   1 NSaved=   1.
 NSaved= 1 IEnMin= 1 EnMin= -1991.35894268835     IErMin= 1 ErrMin= 2.11D-04
 ErrMax= 2.11D-04  0.00D+00 EMaxC= 1.00D-01 BMatC= 1.35D-05 BMatP= 1.35D-05
 IDIUse=3 WtCom= 9.98D-01 WtEn= 2.11D-03
 Coeff-Com:  0.100D+01
 Coeff-En:   0.100D+01
 Coeff:      0.100D+01
 Gap=     0.231 Goal=   None    Shift=    0.000
 RMSDP=4.49D-06 MaxDP=2.53D-04 DE=-1.87D-04 OVMax= 4.52D-04

 Cycle   9  Pass 1  IDiag  1:
 RMSU=  7.40D-05    CP:  1.00D+00
 E= -1991.35895482261     Delta-E=       -0.000012134264 Rises=F Damp=F
 DIIS: error= 2.26D-05 at cycle   2 NSaved=   2.
 NSaved= 2 IEnMin= 2 EnMin= -1991.35895482261     IErMin= 2 ErrMin= 2.26D-05
 ErrMax= 2.26D-05  0.00D+00 EMaxC= 1.00D-01 BMatC= 7.97D-07 BMatP= 1.35D-05
 IDIUse=1 WtCom= 1.00D+00 WtEn= 0.00D+00
 Coeff-Com:  0.683D-01 0.932D+00
 Coeff:      0.683D-01 0.932D+00
 Gap=     0.231 Goal=   None    Shift=    0.000
 RMSDP=3.91D-06 MaxDP=2.15D-04 DE=-1.21D-05 OVMax= 3.63D-04

 Cycle  10  Pass 1  IDiag  1:
 RMSU=  3.27D-06    CP:  1.00D+00  1.03D+00
 E= -1991.35895445202     Delta-E=        0.000000370589 Rises=F Damp=F
 DIIS: error= 3.67D-05 at cycle   3 NSaved=   3.
 NSaved= 3 IEnMin= 2 EnMin= -1991.35895482261     IErMin= 2 ErrMin= 2.26D-05
 ErrMax= 3.67D-05  0.00D+00 EMaxC= 1.00D-01 BMatC= 1.28D-06 BMatP= 7.97D-07
 IDIUse=1 WtCom= 1.00D+00 WtEn= 0.00D+00
 Coeff-Com: -0.152D-01 0.564D+00 0.451D+00
 Coeff:     -0.152D-01 0.564D+00 0.451D+00
 Gap=     0.231 Goal=   None    Shift=    0.000
 RMSDP=1.85D-06 MaxDP=1.28D-04 DE= 3.71D-07 OVMax= 2.26D-04

 Cycle  11  Pass 1  IDiag  1:
 RMSU=  6.41D-07    CP:  1.00D+00  1.03D+00  4.79D-01
 E= -1991.35895551762     Delta-E=       -0.000001065599 Rises=F Damp=F
 DIIS: error= 4.04D-06 at cycle   4 NSaved=   4.
 NSaved= 4 IEnMin= 4 EnMin= -1991.35895551762     IErMin= 4 ErrMin= 4.04D-06
 ErrMax= 4.04D-06  0.00D+00 EMaxC= 1.00D-01 BMatC= 1.04D-08 BMatP= 7.97D-07
 IDIUse=1 WtCom= 1.00D+00 WtEn= 0.00D+00
 Coeff-Com: -0.814D-02 0.250D+00 0.210D+00 0.548D+00
 Coeff:     -0.814D-02 0.250D+00 0.210D+00 0.548D+00
 Gap=     0.231 Goal=   None    Shift=    0.000
 RMSDP=2.16D-07 MaxDP=1.09D-05 DE=-1.07D-06 OVMax= 3.44D-05

 Cycle  12  Pass 1  IDiag  1:
 RMSU=  1.94D-07    CP:  1.00D+00  1.03D+00  4.96D-01  8.85D-01
 E= -1991.35895552721     Delta-E=       -0.000000009596 Rises=F Damp=F
 DIIS: error= 1.60D-06 at cycle   5 NSaved=   5.
 NSaved= 5 IEnMin= 5 EnMin= -1991.35895552721     IErMin= 5 ErrMin= 1.60D-06
 ErrMax= 1.60D-06  0.00D+00 EMaxC= 1.00D-01 BMatC= 1.04D-09 BMatP= 1.04D-08
 IDIUse=1 WtCom= 1.00D+00 WtEn= 0.00D+00
 Coeff-Com: -0.712D-03 0.637D-02 0.758D-02 0.222D+00 0.765D+00
 Coeff:     -0.712D-03 0.637D-02 0.758D-02 0.222D+00 0.765D+00
 Gap=     0.231 Goal=   None    Shift=    0.000
 RMSDP=9.04D-08 MaxDP=5.06D-06 DE=-9.60D-09 OVMax= 8.54D-06

 Cycle  13  Pass 1  IDiag  1:
 RMSU=  6.67D-08    CP:  1.00D+00  1.03D+00  4.97D-01  9.66D-01  8.53D-01
 E= -1991.35895552815     Delta-E=       -0.000000000935 Rises=F Damp=F
 DIIS: error= 4.91D-07 at cycle   6 NSaved=   6.
 NSaved= 6 IEnMin= 6 EnMin= -1991.35895552815     IErMin= 6 ErrMin= 4.91D-07
 ErrMax= 4.91D-07  0.00D+00 EMaxC= 1.00D-01 BMatC= 2.69D-10 BMatP= 1.04D-09
 IDIUse=1 WtCom= 1.00D+00 WtEn= 0.00D+00
 Coeff-Com:  0.828D-03-0.341D-01-0.279D-01 0.483D-01 0.427D+00 0.586D+00
 Coeff:      0.828D-03-0.341D-01-0.279D-01 0.483D-01 0.427D+00 0.586D+00
 Gap=     0.231 Goal=   None    Shift=    0.000
 RMSDP=3.59D-08 MaxDP=1.88D-06 DE=-9.35D-10 OVMax= 5.24D-06

 Cycle  14  Pass 1  IDiag  1:
 RMSU=  2.53D-08    CP:  1.00D+00  1.03D+00  4.98D-01  9.85D-01  9.36D-01
                    CP:  7.78D-01
 E= -1991.35895552840     Delta-E=       -0.000000000254 Rises=F Damp=F
 DIIS: error= 1.46D-07 at cycle   7 NSaved=   7.
 NSaved= 7 IEnMin= 7 EnMin= -1991.35895552840     IErMin= 7 ErrMin= 1.46D-07
 ErrMax= 1.46D-07  0.00D+00 EMaxC= 1.00D-01 BMatC= 1.48D-11 BMatP= 2.69D-10
 IDIUse=1 WtCom= 1.00D+00 WtEn= 0.00D+00
 Coeff-Com:  0.401D-03-0.145D-01-0.123D-01 0.300D-02 0.108D+00 0.242D+00
 Coeff-Com:  0.673D+00
 Coeff:      0.401D-03-0.145D-01-0.123D-01 0.300D-02 0.108D+00 0.242D+00
 Coeff:      0.673D+00
 Gap=     0.231 Goal=   None    Shift=    0.000
 RMSDP=9.25D-09 MaxDP=4.98D-07 DE=-2.54D-10 OVMax= 1.17D-06

 SCF Done:  E(RM062X) =  -1991.35895553     A.U. after   14 cycles
            NFock= 14  Conv=0.93D-08     -V/T= 2.0076
 KE= 1.976425555610D+03 PE=-1.463063329754D+04 EE= 5.673731504783D+03
 Leave Link  502 at Thu Feb  7 17:28:11 2019, MaxMem=   104857600 cpu:            3590.2 elap:             149.9
 (Enter /home/xinyan/g16/l601.exe)
 Copying SCF densities to generalized density rwf, IOpCl= 0 IROHF=0.

 **********************************************************************

            Population analysis using the SCF density.

 **********************************************************************

 Orbital symmetries:
       Occupied  (A) (A) (A) (A) (A) (A) (A) (A) (A) (A) (A) (A)
                 (A) (A) (A) (A) (A) (A) (A) (A) (A) (A) (A) (A)
                 (A) (A) (A) (A) (A) (A) (A) (A) (A) (A) (A) (A)
                 (A) (A) (A) (A) (A) (A) (A) (A) (A) (A) (A) (A)
                 (A) (A) (A) (A) (A) (A) (A) (A) (A) (A) (A) (A)
                 (A) (A) (A) (A) (A) (A) (A) (A) (A) (A) (A) (A)
                 (A) (A) (A) (A) (A) (A) (A) (A) (A) (A) (A) (A)
                 (A) (A) (A) (A) (A) (A) (A) (A) (A) (A) (A) (A)
                 (A) (A) (A) (A) (A) (A) (A) (A) (A) (A) (A) (A)
                 (A) (A) (A) (A) (A) (A) (A) (A) (A) (A) (A) (A)
                 (A) (A) (A) (A) (A) (A) (A) (A) (A) (A) (A) (A)
                 (A) (A) (A) (A) (A) (A) (A) (A)
       Virtual   (A) (A) (A) (A) (A) (A) (A) (A) (A) (A) (A) (A)
                 (A) (A) (A) (A) (A) (A) (A) (A) (A) (A) (A) (A)
                 (A) (A) (A) (A) (A) (A) (A) (A) (A) (A) (A) (A)
                 (A) (A) (A) (A) (A) (A) (A) (A) (A) (A) (A) (A)
                 (A) (A) (A) (A) (A) (A) (A) (A) (A) (A) (A) (A)
                 (A) (A) (A) (A) (A) (A) (A) (A) (A) (A) (A) (A)
                 (A) (A) (A) (A) (A) (A) (A) (A) (A) (A) (A) (A)
                 (A) (A) (A) (A) (A) (A) (A) (A) (A) (A) (A) (A)
                 (A) (A) (A) (A) (A) (A) (A) (A) (A) (A) (A) (A)
                 (A) (A) (A) (A) (A) (A) (A) (A) (A) (A) (A) (A)
                 (A) (A) (A) (A) (A) (A) (A) (A) (A) (A) (A) (A)
                 (A) (A) (A) (A) (A) (A) (A) (A) (A) (A) (A) (A)
                 (A) (A) (A) (A) (A) (A) (A) (A) (A) (A) (A) (A)
                 (A) (A) (A) (A) (A) (A) (A) (A) (A) (A) (A) (A)
                 (A) (A) (A) (A) (A) (A) (A) (A) (A) (A) (A) (A)
                 (A) (A) (A) (A) (A) (A) (A) (A) (A) (A) (A) (A)
                 (A) (A) (A) (A) (A) (A) (A) (A) (A) (A) (A) (A)
                 (A) (A) (A) (A) (A) (A) (A) (A) (A) (A) (A) (A)
                 (A) (A) (A) (A) (A) (A) (A) (A) (A) (A) (A) (A)
                 (A) (A) (A) (A) (A) (A) (A) (A) (A) (A) (A) (A)
                 (A) (A) (A) (A) (A) (A) (A) (A) (A) (A) (A) (A)
                 (A) (A) (A) (A) (A) (A) (A) (A) (A) (A) (A) (A)
                 (A) (A) (A) (A) (A) (A) (A) (A) (A) (A) (A) (A)
                 (A) (A) (A) (A) (A) (A) (A) (A) (A) (A) (A) (A)
                 (A) (A) (A) (A) (A) (A) (A) (A) (A) (A) (A) (A)
                 (A) (A) (A) (A) (A) (A) (A) (A) (A) (A) (A) (A)
                 (A) (A) (A) (A) (A) (A) (A) (A) (A) (A) (A) (A)
                 (A) (A) (A) (A) (A) (A) (A) (A) (A) (A) (A) (A)
                 (A) (A) (A) (A) (A) (A) (A) (A) (A) (A) (A) (A)
                 (A) (A) (A) (A) (A) (A) (A) (A) (A) (A) (A) (A)
                 (A) (A) (A) (A) (A) (A) (A) (A) (A) (A) (A) (A)
                 (A) (A) (A) (A) (A) (A) (A) (A) (A) (A) (A) (A)
                 (A) (A) (A) (A) (A) (A) (A) (A) (A) (A) (A) (A)
                 (A) (A) (A) (A) (A) (A) (A) (A) (A) (A) (A) (A)
                 (A) (A) (A) (A) (A) (A) (A) (A) (A) (A) (A) (A)
                 (A) (A) (A) (A) (A) (A) (A) (A) (A) (A) (A) (A)
                 (A) (A) (A) (A) (A) (A) (A) (A) (A) (A) (A) (A)
                 (A) (A) (A) (A) (A) (A) (A) (A) (A) (A) (A) (A)
                 (A) (A) (A) (A) (A) (A) (A) (A) (A) (A) (A) (A)
                 (A) (A) (A) (A) (A) (A) (A) (A) (A) (A) (A) (A)
                 (A) (A) (A) (A) (A) (A)
 The electronic state is 1-A.
 Alpha  occ. eigenvalues --  -90.14041 -19.61659 -19.61645 -19.58793 -19.56739
 Alpha  occ. eigenvalues --  -19.51393 -14.85116 -14.80459 -14.75441 -10.63373
 Alpha  occ. eigenvalues --  -10.62745 -10.62331 -10.62048 -10.60644 -10.59197
 Alpha  occ. eigenvalues --  -10.58746 -10.57900 -10.57878 -10.57045 -10.56857
 Alpha  occ. eigenvalues --  -10.56652 -10.55597 -10.55578 -10.55208 -10.55068
 Alpha  occ. eigenvalues --  -10.54742 -10.54707 -10.54626 -10.54467 -10.54305
 Alpha  occ. eigenvalues --  -10.54229 -10.54173 -10.53092 -10.51689 -10.51587
 Alpha  occ. eigenvalues --  -10.49809  -8.45020  -6.37235  -6.37214  -6.37058
 Alpha  occ. eigenvalues --   -1.21873  -1.13677  -1.13454  -1.10120  -1.09360
 Alpha  occ. eigenvalues --   -1.05915  -1.01570  -0.99425  -0.95669  -0.94915
 Alpha  occ. eigenvalues --   -0.93452  -0.90222  -0.88757  -0.85929  -0.85807
 Alpha  occ. eigenvalues --   -0.84770  -0.84633  -0.84345  -0.82994  -0.82593
 Alpha  occ. eigenvalues --   -0.76636  -0.76378  -0.75829  -0.74388  -0.72694
 Alpha  occ. eigenvalues --   -0.71552  -0.68348  -0.68296  -0.67899  -0.67138
 Alpha  occ. eigenvalues --   -0.66754  -0.65177  -0.64862  -0.63520  -0.60579
 Alpha  occ. eigenvalues --   -0.60406  -0.59799  -0.58814  -0.57849  -0.57539
 Alpha  occ. eigenvalues --   -0.57118  -0.56416  -0.55681  -0.55155  -0.54165
 Alpha  occ. eigenvalues --   -0.53435  -0.52622  -0.52382  -0.52340  -0.51852
 Alpha  occ. eigenvalues --   -0.51514  -0.51096  -0.50954  -0.49838  -0.49593
 Alpha  occ. eigenvalues --   -0.49163  -0.48799  -0.48210  -0.48107  -0.48061
 Alpha  occ. eigenvalues --   -0.47611  -0.47419  -0.46890  -0.46472  -0.46087
 Alpha  occ. eigenvalues --   -0.44934  -0.44649  -0.44067  -0.43877  -0.43245
 Alpha  occ. eigenvalues --   -0.42429  -0.42070  -0.41583  -0.41440  -0.41206
 Alpha  occ. eigenvalues --   -0.40874  -0.40434  -0.40023  -0.39860  -0.39531
 Alpha  occ. eigenvalues --   -0.39237  -0.39035  -0.38429  -0.37865  -0.37576
 Alpha  occ. eigenvalues --   -0.37341  -0.36731  -0.36564  -0.35669  -0.34866
 Alpha  occ. eigenvalues --   -0.34334  -0.33869  -0.31765  -0.30950  -0.29690
 Alpha  occ. eigenvalues --   -0.28878  -0.28528  -0.27552  -0.24995  -0.24530
 Alpha virt. eigenvalues --   -0.01387   0.00512   0.03642   0.03862   0.10224
 Alpha virt. eigenvalues --    0.11066   0.11545   0.12074   0.13216   0.13540
 Alpha virt. eigenvalues --    0.14222   0.14680   0.14829   0.15381   0.15601
 Alpha virt. eigenvalues --    0.16073   0.16832   0.16980   0.17249   0.17576
 Alpha virt. eigenvalues --    0.17989   0.18365   0.18542   0.18857   0.18956
 Alpha virt. eigenvalues --    0.19304   0.19675   0.19889   0.20154   0.20349
 Alpha virt. eigenvalues --    0.20632   0.21038   0.21108   0.21669   0.21763
 Alpha virt. eigenvalues --    0.22260   0.22554   0.22929   0.23473   0.23622
 Alpha virt. eigenvalues --    0.23847   0.24203   0.24430   0.24771   0.25142
 Alpha virt. eigenvalues --    0.25260   0.25634   0.26152   0.26434   0.26897
 Alpha virt. eigenvalues --    0.27206   0.27657   0.27867   0.28626   0.29044
 Alpha virt. eigenvalues --    0.29394   0.29800   0.30066   0.30781   0.30889
 Alpha virt. eigenvalues --    0.31416   0.31879   0.32561   0.32842   0.33157
 Alpha virt. eigenvalues --    0.33787   0.34572   0.35190   0.35579   0.35831
 Alpha virt. eigenvalues --    0.36212   0.37227   0.37776   0.38160   0.38889
 Alpha virt. eigenvalues --    0.39736   0.40282   0.40965   0.42905   0.43248
 Alpha virt. eigenvalues --    0.44556   0.45067   0.46879   0.48320   0.48946
 Alpha virt. eigenvalues --    0.49929   0.51303   0.52778   0.53381   0.54940
 Alpha virt. eigenvalues --    0.55208   0.55368   0.56060   0.56563   0.56941
 Alpha virt. eigenvalues --    0.57510   0.58138   0.58570   0.58801   0.59243
 Alpha virt. eigenvalues --    0.59499   0.60052   0.60378   0.60491   0.60556
 Alpha virt. eigenvalues --    0.61304   0.61444   0.62469   0.62679   0.62883
 Alpha virt. eigenvalues --    0.63865   0.64064   0.64778   0.65238   0.65474
 Alpha virt. eigenvalues --    0.66239   0.66870   0.66927   0.67494   0.67794
 Alpha virt. eigenvalues --    0.68473   0.68979   0.69542   0.69917   0.70750
 Alpha virt. eigenvalues --    0.70952   0.71320   0.71683   0.73249   0.73491
 Alpha virt. eigenvalues --    0.73822   0.74065   0.74710   0.75030   0.75545
 Alpha virt. eigenvalues --    0.76839   0.77410   0.77787   0.78617   0.78951
 Alpha virt. eigenvalues --    0.79477   0.79682   0.80237   0.81175   0.81195
 Alpha virt. eigenvalues --    0.81522   0.82234   0.82679   0.83430   0.84346
 Alpha virt. eigenvalues --    0.85021   0.85620   0.85772   0.86400   0.87372
 Alpha virt. eigenvalues --    0.87591   0.88398   0.88938   0.89520   0.89599
 Alpha virt. eigenvalues --    0.89887   0.90253   0.90569   0.90876   0.91231
 Alpha virt. eigenvalues --    0.91741   0.92298   0.92838   0.93072   0.93265
 Alpha virt. eigenvalues --    0.93702   0.94469   0.94791   0.95048   0.95580
 Alpha virt. eigenvalues --    0.95969   0.96175   0.96488   0.96573   0.97171
 Alpha virt. eigenvalues --    0.97267   0.97917   0.98148   0.98393   0.98459
 Alpha virt. eigenvalues --    0.99199   0.99764   0.99925   1.00489   1.00693
 Alpha virt. eigenvalues --    1.01340   1.01977   1.02110   1.02895   1.03068
 Alpha virt. eigenvalues --    1.03176   1.04374   1.04817   1.05018   1.05542
 Alpha virt. eigenvalues --    1.05888   1.06979   1.07874   1.08073   1.08642
 Alpha virt. eigenvalues --    1.10463   1.10679   1.11656   1.12059   1.12198
 Alpha virt. eigenvalues --    1.13306   1.13701   1.14390   1.15233   1.15358
 Alpha virt. eigenvalues --    1.16298   1.17446   1.17804   1.18831   1.19122
 Alpha virt. eigenvalues --    1.19923   1.21139   1.21605   1.21856   1.22177
 Alpha virt. eigenvalues --    1.22773   1.23238   1.24172   1.24580   1.25899
 Alpha virt. eigenvalues --    1.25936   1.28175   1.29055   1.29493   1.30678
 Alpha virt. eigenvalues --    1.31438   1.31697   1.31899   1.32467   1.33394
 Alpha virt. eigenvalues --    1.34344   1.34861   1.35278   1.36215   1.36899
 Alpha virt. eigenvalues --    1.37755   1.38402   1.39393   1.41222   1.41436
 Alpha virt. eigenvalues --    1.41896   1.42228   1.44237   1.45042   1.45893
 Alpha virt. eigenvalues --    1.47325   1.47974   1.48498   1.49227   1.49681
 Alpha virt. eigenvalues --    1.51061   1.52121   1.52468   1.52799   1.54527
 Alpha virt. eigenvalues --    1.54729   1.55080   1.55944   1.56983   1.57247
 Alpha virt. eigenvalues --    1.57606   1.58514   1.60633   1.61138   1.61852
 Alpha virt. eigenvalues --    1.62038   1.62722   1.63928   1.66087   1.67110
 Alpha virt. eigenvalues --    1.69219   1.69680   1.70772   1.72254   1.73041
 Alpha virt. eigenvalues --    1.74232   1.74757   1.75748   1.77192   1.78109
 Alpha virt. eigenvalues --    1.78507   1.79243   1.80524   1.80643   1.81670
 Alpha virt. eigenvalues --    1.84163   1.84583   1.85196   1.85617   1.86042
 Alpha virt. eigenvalues --    1.86337   1.86800   1.87653   1.88157   1.89168
 Alpha virt. eigenvalues --    1.89960   1.90153   1.90682   1.91204   1.91731
 Alpha virt. eigenvalues --    1.92809   1.93856   1.94070   1.94536   1.94632
 Alpha virt. eigenvalues --    1.95468   1.95628   1.96075   1.96940   1.97682
 Alpha virt. eigenvalues --    1.98251   1.98996   1.99140   1.99999   2.01022
 Alpha virt. eigenvalues --    2.01829   2.02363   2.02513   2.02861   2.03757
 Alpha virt. eigenvalues --    2.04298   2.06142   2.06440   2.06915   2.07515
 Alpha virt. eigenvalues --    2.07689   2.08180   2.08595   2.09257   2.09780
 Alpha virt. eigenvalues --    2.09928   2.10610   2.11856   2.12026   2.12756
 Alpha virt. eigenvalues --    2.12911   2.13979   2.14667   2.15133   2.16222
 Alpha virt. eigenvalues --    2.16380   2.16756   2.17483   2.18634   2.19382
 Alpha virt. eigenvalues --    2.20082   2.20465   2.20688   2.21710   2.22295
 Alpha virt. eigenvalues --    2.23074   2.23252   2.23513   2.23748   2.24652
 Alpha virt. eigenvalues --    2.25614   2.26189   2.26638   2.27503   2.28657
 Alpha virt. eigenvalues --    2.28772   2.30146   2.30908   2.31309   2.32278
 Alpha virt. eigenvalues --    2.32533   2.34331   2.35095   2.35275   2.35664
 Alpha virt. eigenvalues --    2.36050   2.37355   2.37913   2.38537   2.38911
 Alpha virt. eigenvalues --    2.39258   2.40208   2.41010   2.41862   2.42868
 Alpha virt. eigenvalues --    2.43283   2.44735   2.45317   2.46059   2.47028
 Alpha virt. eigenvalues --    2.49698   2.50808   2.51727   2.52215   2.53499
 Alpha virt. eigenvalues --    2.54031   2.54781   2.56502   2.57220   2.59999
 Alpha virt. eigenvalues --    2.60883   2.61822   2.62384   2.62976   2.64269
 Alpha virt. eigenvalues --    2.64762   2.64963   2.65957   2.67288   2.68390
 Alpha virt. eigenvalues --    2.68853   2.69750   2.70737   2.71718   2.72760
 Alpha virt. eigenvalues --    2.73827   2.74493   2.76362   2.76855   2.77341
 Alpha virt. eigenvalues --    2.79497   2.80156   2.80677   2.80986   2.81547
 Alpha virt. eigenvalues --    2.83404   2.85470   2.86293   2.87318   2.88449
 Alpha virt. eigenvalues --    2.89233   2.90928   2.92813   2.93843   2.97213
 Alpha virt. eigenvalues --    2.99848   3.00504   3.03041   3.05319   3.10409
 Alpha virt. eigenvalues --    3.14835   3.16555   3.24095   3.41479   3.42995
 Alpha virt. eigenvalues --    3.97183   4.02028   4.05286   4.09482   4.11242
 Alpha virt. eigenvalues --    4.16031   4.17624   4.18114   4.18614   4.19920
 Alpha virt. eigenvalues --    4.21602   4.23493   4.24593   4.26716   4.27382
 Alpha virt. eigenvalues --    4.30109   4.32810   4.33296   4.34748   4.35354
 Alpha virt. eigenvalues --    4.39457   4.40795   4.41845   4.44258   4.48211
 Alpha virt. eigenvalues --    4.51056   4.56082   4.58155   4.59062   4.62064
 Alpha virt. eigenvalues --    4.63968   4.65793   4.73899   4.75397   4.77352
 Alpha virt. eigenvalues --    4.80534
          Condensed to atoms (all electrons):
 Mulliken charges:
               1
     1  C   -0.306048
     2  C   -0.306866
     3  C   -0.310399
     4  C   -0.058900
     5  C    0.056839
     6  C   -0.311697
     7  H    0.173720
     8  H    0.162894
     9  H    0.165033
    10  H    0.150380
    11  H    0.162862
    12  H    0.208337
    13  H    0.172323
    14  H    0.193823
    15  H    0.163243
    16  H    0.153603
    17  N   -0.432926
    18  C    0.070496
    19  C    0.065021
    20  C   -0.205877
    21  H    0.207087
    22  C   -0.209383
    23  H    0.245872
    24  C    0.451966
    25  H    0.190683
    26  H    0.211756
    27  N   -0.529932
    28  C   -0.176801
    29  H    0.169987
    30  H    0.237936
    31  C   -0.154069
    32  H    0.168649
    33  H    0.200203
    34  N   -0.817359
    35  S    1.254047
    36  O   -0.611498
    37  O   -0.609765
    38  C    0.092129
    39  C   -0.176994
    40  C   -0.188642
    41  C   -0.170444
    42  C   -0.163604
    43  C   -0.212030
    44  H    0.202063
    45  H    0.141494
    46  H    0.154420
    47  H    0.158056
    48  H    0.151886
    49  O   -0.547661
    50  H    0.449832
    51  C    0.728517
    52  O   -0.724637
    53  O   -0.718116
    54  H    0.445921
    55  C   -0.337282
    56  H    0.150361
    57  H    0.147752
    58  C   -0.095318
    59  H    0.141393
    60  H    0.146511
    61  C   -0.662591
    62  H    0.270321
    63  H    0.196320
    64  H    0.217332
    65  C   -0.295903
    66  H    0.141899
    67  H    0.147128
    68  C   -0.476351
    69  H    0.149619
    70  H    0.156436
    71  H    0.143998
    72  C   -0.331897
    73  H    0.187526
    74  H    0.163860
    75  C   -0.344552
    76  H    0.193923
    77  H    0.172085
 Sum of Mulliken charges =  -0.00000
 Mulliken charges with hydrogens summed into heavy atoms:
               1
     1  C    0.007194
     2  C    0.021061
     3  C    0.016924
     4  C    0.149437
     5  C    0.229162
     6  C    0.045370
    17  N   -0.432926
    18  C    0.277583
    19  C    0.310893
    20  C   -0.015194
    22  C    0.002373
    24  C    0.451966
    27  N   -0.529932
    28  C    0.231122
    31  C    0.214783
    34  N   -0.367527
    35  S    1.254047
    36  O   -0.611498
    37  O   -0.609765
    38  C    0.092129
    39  C    0.025069
    40  C   -0.047149
    41  C   -0.016023
    42  C   -0.005549
    43  C   -0.060144
    49  O   -0.547661
    51  C    0.728517
    52  O   -0.724637
    53  O   -0.272194
    55  C   -0.039169
    58  C    0.192587
    61  C    0.021382
    65  C   -0.006877
    68  C   -0.026298
    72  C    0.019488
    75  C    0.021457
 Electronic spatial extent (au):  <R**2>=          14371.3718
 Charge=             -0.0000 electrons
 Dipole moment (field-independent basis, Debye):
    X=             -2.0083    Y=             -1.9717    Z=             -6.4967  Tot=              7.0801
 Quadrupole moment (field-independent basis, Debye-Ang):
   XX=           -204.5186   YY=           -223.1620   ZZ=           -219.9936
   XY=            -12.0923   XZ=             -5.1352   YZ=             10.2694
 Traceless Quadrupole moment (field-independent basis, Debye-Ang):
   XX=             11.3728   YY=             -7.2706   ZZ=             -4.1022
   XY=            -12.0923   XZ=             -5.1352   YZ=             10.2694
 Octapole moment (field-independent basis, Debye-Ang**2):
  XXX=             22.2006  YYY=            -47.6395  ZZZ=              6.5960  XYY=             11.1738
  XXY=            -23.0585  XXZ=            -36.6994  XZZ=            -23.9681  YZZ=             12.1203
  YYZ=             19.2568  XYZ=            -21.9023
 Hexadecapole moment (field-independent basis, Debye-Ang**3):
 XXXX=          -9963.7136 YYYY=          -5351.6838 ZZZZ=          -3550.5922 XXXY=           -205.8484
 XXXZ=             -7.3173 YYYX=            -45.6174 YYYZ=             55.1034 ZZZX=           -110.8990
 ZZZY=              7.8633 XXYY=          -2564.2585 XXZZ=          -2331.7979 YYZZ=          -1579.9799
 XXYZ=             52.4577 YYXZ=             52.1225 ZZXY=            -53.6990
 N-N= 4.989117281622D+03 E-N=-1.463063333324D+04  KE= 1.976425555610D+03
 No NMR shielding tensors so no spin-rotation constants.
 Leave Link  601 at Thu Feb  7 17:28:12 2019, MaxMem=   104857600 cpu:              21.4 elap:               1.0
 (Enter /home/xinyan/g16/l701.exe)
 ... and contract with generalized density number  0.
 Compute integral first derivatives.
 R6Disp: Adding Grimme-D3 dispersion energy 1st derivatives to the gradient.
 Leave Link  701 at Thu Feb  7 17:28:13 2019, MaxMem=   104857600 cpu:              21.0 elap:               0.9
 (Enter /home/xinyan/g16/l702.exe)
 L702 exits ... SP integral derivatives will be done elsewhere.
 Leave Link  702 at Thu Feb  7 17:28:13 2019, MaxMem=   104857600 cpu:               1.4 elap:               0.1
 (Enter /home/xinyan/g16/l703.exe)
 Integral derivatives from FoFJK, PRISM(SPDF).
 Compute integral first derivatives, UseDBF=F ICtDFT=           0.
 Calling FoFJK, ICntrl=      2127 FMM=T ISym2X=0 I1Cent= 0 IOpClX= 0 NMat=1 NMatS=1 NMatT=0.
 FoFJK:  IHMeth= 1 ICntrl=    2127 DoSepK=F KAlg= 0 I1Cent=           0 FoldK=F
 IRaf=         0 NMat=       1 IRICut=       1 DoRegI=T DoRafI=F ISym2E= 0 IDoP0=0 IntGTp=1.
 FoFCou: FMM=T IPFlag=           0 FMFlag=      100000 FMFlg1=        2001
         NFxFlg=           0 DoJE=F BraDBF=F KetDBF=F FulRan=T
         wScrn=  0.000000 ICntrl=      2127 IOpCl=  0 I1Cent=           0 NGrid=           0
         NMat0=    1 NMatS0=      1 NMatT0=    0 NMatD0=    1 NMtDS0=    0 NMtDT0=    0
 Symmetry not used in FoFCou.
 FMM levels:  10  Number of levels for PrismC:   9
 Leave Link  703 at Thu Feb  7 17:28:47 2019, MaxMem=   104857600 cpu:             813.2 elap:              34.0
 (Enter /home/xinyan/g16/l716.exe)
 Dipole        =-7.90138762D-01-7.75740235D-01-2.55600143D+00
 ***** Axes restored to original set *****
 -------------------------------------------------------------------
 Center     Atomic                   Forces (Hartrees/Bohr)
 Number     Number              X              Y              Z
 -------------------------------------------------------------------
      1        6          -0.000001280   -0.000077561   -0.000093853
      2        6           0.000068325   -0.000036295    0.000014331
      3        6          -0.000009418   -0.000049632   -0.000055806
      4        6           0.000035235    0.000093216    0.000103118
      5        6          -0.000057371    0.000023384   -0.000066400
      6        6          -0.000017586    0.000056038    0.000073636
      7        1          -0.000006675   -0.000001752   -0.000010814
      8        1          -0.000005779    0.000002140   -0.000021684
      9        1           0.000005033    0.000004700    0.000002133
     10        1          -0.000003973    0.000028007   -0.000044331
     11        1          -0.000000930   -0.000000162   -0.000010974
     12        1          -0.000002153   -0.000060238    0.000064149
     13        1          -0.000009332    0.000027256    0.000015158
     14        1           0.000004857    0.000007187   -0.000015500
     15        1          -0.000001423    0.000001014   -0.000007044
     16        1          -0.000003305   -0.000001555   -0.000009170
     17        7          -0.000002505   -0.000020586    0.000024166
     18        6           0.000009026   -0.000022086   -0.000016441
     19        6          -0.000016058    0.000015941   -0.000040009
     20        6          -0.000010652   -0.000015319   -0.000040659
     21        1           0.000011357   -0.000002386   -0.000004343
     22        6           0.000001280   -0.000007872    0.000016715
     23        1          -0.000005563    0.000018539    0.000011598
     24        6           0.000007781   -0.000010739    0.000026964
     25        1           0.000003027   -0.000011051    0.000000851
     26        1           0.000003366    0.000015574    0.000019974
     27        7           0.000020662   -0.000060761    0.000062517
     28        6          -0.000013599    0.000016484   -0.000039233
     29        1           0.000005589    0.000014019    0.000004971
     30        1          -0.000024334    0.000005520   -0.000011555
     31        6           0.000007389    0.000033088   -0.000021754
     32        1          -0.000006462   -0.000008511   -0.000000165
     33        1           0.000030863   -0.000013581   -0.000013527
     34        7          -0.000041541    0.000004388    0.000027688
     35       16           0.000050892   -0.000054687   -0.000135186
     36        8           0.000009700    0.000023444   -0.000023506
     37        8          -0.000026586    0.000040648   -0.000002665
     38        6          -0.000006350    0.000082474    0.000110766
     39        6          -0.000113831    0.000041869    0.000030119
     40        6          -0.000031231    0.000012352   -0.000009971
     41        6          -0.000076244    0.000013373   -0.000003560
     42        6          -0.000124571    0.000031139    0.000064060
     43        6          -0.000026583    0.000000552    0.000132123
     44        1           0.000184530   -0.000115975   -0.000074775
     45        1           0.000009221    0.000010787   -0.000014711
     46        1           0.000000534    0.000007937    0.000013133
     47        1           0.000104209   -0.000030545   -0.000015769
     48        1           0.000023290   -0.000012471   -0.000063511
     49        8           0.000010274    0.000245270   -0.000000235
     50        1          -0.000015513   -0.000023273    0.000135626
     51        6          -0.000127509    0.000019434   -0.000059446
     52        8           0.000066069    0.000048850   -0.000144257
     53        8           0.000491816    0.000166054    0.000103236
     54        1          -0.000296223   -0.000244287    0.000003433
     55        6          -0.000236955    0.000446306    0.000196853
     56        1          -0.000066502   -0.000123164   -0.000180244
     57        1           0.000281046   -0.000364335    0.000007720
     58        6           0.000068549    0.000093947    0.000028775
     59        1           0.000068942   -0.000066266   -0.000088699
     60        1          -0.000119099   -0.000117608    0.000065233
     61        6           0.000010899    0.000021049   -0.000003389
     62        1          -0.000003716   -0.000032425   -0.000006024
     63        1          -0.000043434    0.000034128   -0.000011473
     64        1          -0.000004158   -0.000011109    0.000040441
     65        6          -0.000170457   -0.000146476   -0.000133237
     66        1           0.000027661    0.000074477    0.000166706
     67        1          -0.000052290   -0.000009146    0.000018966
     68        6           0.000191025   -0.000070437   -0.000030128
     69        1          -0.000039360   -0.000002589   -0.000048918
     70        1          -0.000010086   -0.000010006    0.000037323
     71        1           0.000015527    0.000049549    0.000037171
     72        6          -0.000007302    0.000006908   -0.000002762
     73        1          -0.000000817   -0.000001195   -0.000026635
     74        1           0.000001502    0.000000614    0.000005424
     75        6           0.000011166    0.000014195   -0.000052264
     76        1          -0.000002115   -0.000005167   -0.000002063
     77        1           0.000000228   -0.000010606   -0.000008389
 -------------------------------------------------------------------
 Cartesian Forces:  Max     0.000491816 RMS     0.000083892
 Z-matrix is all fixed cartesians, so copy forces.
 Leave Link  716 at Thu Feb  7 17:28:47 2019, MaxMem=   104857600 cpu:               2.4 elap:               0.1
 (Enter /home/xinyan/g16/l103.exe)

 GradGradGradGradGradGradGradGradGradGradGradGradGradGradGradGradGradGrad
 Berny optimization.
 Search for a local minimum.
 Step number   1 out of a maximum of    2
 All quantities printed in internal units (Hartrees-Bohrs-Radians)
 Second derivative matrix not updated -- first step.
 ITU=  0
     Eigenvalues ---   -0.00000   0.00000   0.00000   0.00000   0.00000
     Eigenvalues ---    0.00000   0.00007   0.00013   0.00018   0.00021
     Eigenvalues ---    0.00037   0.00037   0.00084   0.00095   0.00116
     Eigenvalues ---    0.00136   0.00142   0.00203   0.00235   0.00292
     Eigenvalues ---    0.00387   0.00407   0.00449   0.00496   0.00586
     Eigenvalues ---    0.00602   0.00632   0.00689   0.00707   0.00844
     Eigenvalues ---    0.00961   0.01137   0.01166   0.01451   0.01659
     Eigenvalues ---    0.01685   0.01890   0.01957   0.02040   0.02161
     Eigenvalues ---    0.02295   0.02306   0.02442   0.02541   0.02873
     Eigenvalues ---    0.02947   0.03058   0.03079   0.03218   0.03448
     Eigenvalues ---    0.03556   0.03715   0.03919   0.04201   0.04327
     Eigenvalues ---    0.04361   0.04816   0.04844   0.04892   0.04925
     Eigenvalues ---    0.05023   0.05068   0.05105   0.05111   0.05164
     Eigenvalues ---    0.05191   0.05264   0.05372   0.05473   0.05613
     Eigenvalues ---    0.05646   0.05660   0.05697   0.05746   0.05789
     Eigenvalues ---    0.06009   0.06178   0.06239   0.06481   0.06568
     Eigenvalues ---    0.06844   0.06859   0.06974   0.07033   0.07062
     Eigenvalues ---    0.07172   0.07251   0.07285   0.07333   0.07379
     Eigenvalues ---    0.07663   0.07790   0.07857   0.07968   0.08080
     Eigenvalues ---    0.08460   0.08603   0.08777   0.09040   0.09728
     Eigenvalues ---    0.09771   0.10168   0.10465   0.11268   0.11456
     Eigenvalues ---    0.11827   0.12106   0.12590   0.12865   0.12919
     Eigenvalues ---    0.12940   0.13029   0.13349   0.13658   0.13928
     Eigenvalues ---    0.14131   0.14427   0.14632   0.15549   0.15731
     Eigenvalues ---    0.16044   0.16082   0.16871   0.16928   0.17016
     Eigenvalues ---    0.17227   0.17314   0.17726   0.17869   0.19549
     Eigenvalues ---    0.19679   0.20369   0.20645   0.21544   0.21671
     Eigenvalues ---    0.23028   0.23373   0.23731   0.24781   0.26421
     Eigenvalues ---    0.27475   0.28656   0.29630   0.30087   0.30572
     Eigenvalues ---    0.31425   0.32295   0.34055   0.34830   0.36322
     Eigenvalues ---    0.36760   0.39467   0.39939   0.41252   0.43082
     Eigenvalues ---    0.43606   0.44534   0.48152   0.49069   0.50192
     Eigenvalues ---    0.52833   0.56774   0.57646   0.60250   0.65015
     Eigenvalues ---    0.65352   0.66299   0.67448   0.68274   0.68774
     Eigenvalues ---    0.70517   0.77657   0.78124   0.78279   0.80958
     Eigenvalues ---    0.82912   0.83303   0.85384   0.86956   0.87180
     Eigenvalues ---    0.87803   0.88683   0.90591   0.91312   0.93931
     Eigenvalues ---    0.94503   0.94796   0.95144   0.95573   0.96312
     Eigenvalues ---    0.97741   0.97818   0.99588   1.00252   1.00622
     Eigenvalues ---    1.00737   1.03798   1.04243   1.04706   1.06083
     Eigenvalues ---    1.06208   1.06771   1.07077   1.08905   1.09021
     Eigenvalues ---    1.12566   1.15626   1.15946   1.16509   1.19961
     Eigenvalues ---    1.21289   1.24267   1.25826   1.27502   1.37333
     Eigenvalues ---    1.47368   1.53687   1.56347   1.58371   1.58922
     Eigenvalues ---    1.59657   1.67542   1.73163   1.84136   2.33319
 Eigenvalue     1 is  -2.22D-16 should be greater than     0.000000 Eigenvector:
                          Y71       Y70       Y57       Y68       Y56
   1                    0.13550   0.13550   0.13550   0.13550   0.13550
                          Y69       Y55       Y53       Y65       Y54
   1                    0.13550   0.13550   0.13550   0.13550   0.13550
 Eigenvalue     2 is   5.49D-08 Eigenvector:
                          X45       X46       X40       X41       Y73
   1                    0.16846   0.15283   0.14631   0.13763   0.13708
                          Y46       X44       Y77       X66       Y74
   1                   -0.13582   0.13420   0.13262   0.13120   0.13062
 Eigenvalue     3 is   6.22D-08 Eigenvector:
                          X54       Y46       X53       Z47       Y47
   1                    0.21013  -0.20740   0.18909   0.18500  -0.17950
                          Z46       Y41       Z42       Y42       Z70
   1                    0.16774  -0.16680   0.15572  -0.15122  -0.14995
 Eigenvalue     4 is   1.48D-07 Eigenvector:
                          Z76       Z77       Z54       Z53       Z57
   1                    0.17902   0.17867  -0.17676  -0.17157  -0.16791
                          Y64       Z71       Z75       Z52       Z33
   1                   -0.15809  -0.15625   0.15623  -0.14939   0.14773
 Eigenvalue     5 is   2.44D-07 Eigenvector:
                          Y46       Z47       Y9        Y64       Y47
   1                    0.18000   0.17910  -0.16128   0.15528   0.15065
                          Z42       Y73       Y7        Z46       Y41
   1                    0.14405   0.14073  -0.14039   0.14035   0.13971
 Eigenvalue     6 is   4.36D-07 Eigenvector:
                          Y69       Z54       Y48       Y59       Y71
   1                    0.26123  -0.24826  -0.23199  -0.22792   0.20949
                          Y45       Z53       Z70       Y68       Y66
   1                    0.19150  -0.18381   0.18109   0.18058   0.17775
 Eigenvalue     7 is   7.28D-05 Eigenvector:
                          X69       X45       X46       X70       X67
   1                    0.27909  -0.24847  -0.23074   0.21630   0.21591
                          X68       Z70       Z69       X40       X41
   1                    0.20888   0.20829   0.20121  -0.19046  -0.18079
 Quadratic step=9.414D-01 exceeds max=3.000D-01 adjusted using Lamda=-2.346D-04.
 Angle between NR and scaled steps=   7.82 degrees.
 Angle between quadratic step and forces=  84.35 degrees.
 Linear search not attempted -- first point.
 B after Tr=    -0.000673    0.000803    0.001302
         Rot=    1.000000   -0.000127    0.000014    0.000013 Ang=  -0.01 deg.
 Variable       Old X    -DE/DX   Delta X   Delta X   Delta X     New X
                                 (Linear)    (Quad)   (Total)
    X1       -9.27230  -0.00000   0.00000  -0.00161  -0.00225  -9.27455
    Y1        0.41878  -0.00008   0.00000  -0.00746  -0.00616   0.41263
    Z1       -0.95864  -0.00009   0.00000  -0.03854  -0.03740  -0.99604
    X2       -9.55396   0.00007   0.00000   0.00636   0.00571  -9.54825
    Y2       -1.98191  -0.00004   0.00000  -0.01758  -0.01587  -1.99778
    Z2       -2.55056   0.00001   0.00000  -0.02425  -0.02374  -2.57430
    X3       -6.99686  -0.00001   0.00000   0.01087   0.01022  -6.98664
    Y3       -2.80020  -0.00005   0.00000  -0.02084  -0.01892  -2.81912
    Z3       -3.64107  -0.00006   0.00000  -0.01023  -0.00985  -3.65092
    X4       -5.16152   0.00004   0.00000   0.00420   0.00349  -5.15804
    Y4       -3.23748   0.00009   0.00000  -0.00515  -0.00384  -3.24132
    Z4       -1.46444   0.00010   0.00000  -0.00127  -0.00095  -1.46539
    X5       -4.79263  -0.00006   0.00000  -0.00462  -0.00532  -4.79795
    Y5       -0.78760   0.00002   0.00000   0.00318   0.00409  -0.78351
    Z5        0.10233  -0.00007   0.00000  -0.01180  -0.01084   0.09149
    X6       -7.34474  -0.00002   0.00000  -0.01034  -0.01104  -7.35578
    Y6        0.07052   0.00006   0.00000   0.00707   0.00778   0.07830
    Z6        1.17280   0.00007   0.00000  -0.02806  -0.02695   1.14586
    X7       -7.17675  -0.00001   0.00000   0.01693   0.01628  -7.16047
    Y7       -4.51680  -0.00000   0.00000  -0.02783  -0.02562  -4.54242
    Z7       -4.78361  -0.00001   0.00000  -0.00068  -0.00075  -4.78436
    X8      -10.31566  -0.00001   0.00000   0.00375   0.00303 -10.31263
    Y8       -3.51298   0.00000   0.00000  -0.01121  -0.00977  -3.52276
    Z8       -1.37582  -0.00002   0.00000  -0.01769  -0.01759  -1.39340
    X9      -10.89966   0.00001   0.00000   0.01151   0.01091 -10.88874
    Y9       -1.67490   0.00000   0.00000  -0.02822  -0.02608  -1.70098
    Z9       -4.09103   0.00000   0.00000  -0.03084  -0.03029  -4.12132
   X10       -8.65338  -0.00000   0.00000   0.00211   0.00156  -8.65182
   Y10        1.97440   0.00003   0.00000  -0.01460  -0.01300   1.96141
   Z10       -2.18384  -0.00004   0.00000  -0.04593  -0.04438  -2.22822
   X11      -11.10428  -0.00000   0.00000  -0.00524  -0.00588 -11.11015
   Y11        0.96219  -0.00000   0.00000  -0.00382  -0.00266   0.95953
   Z11       -0.16511  -0.00001   0.00000  -0.04940  -0.04817  -0.21328
   X12       -5.91734  -0.00000   0.00000   0.00276   0.00197  -5.91537
   Y12       -4.70523  -0.00006   0.00000   0.00030   0.00131  -4.70392
   Z12       -0.21862   0.00006   0.00000   0.00466   0.00460  -0.21402
   X13       -4.14704  -0.00001   0.00000   0.00176   0.00115  -4.14590
   Y13        0.67800   0.00003   0.00000  -0.00187  -0.00064   0.67735
   Z13       -1.21625   0.00002   0.00000  -0.01431  -0.01295  -1.22920
   X14       -8.03761   0.00000   0.00000  -0.01484  -0.01562  -8.05323
   Y14       -1.33252   0.00001   0.00000   0.01414   0.01452  -1.31800
   Z14        2.52658  -0.00002   0.00000  -0.02308  -0.02234   2.50424
   X15       -7.05412  -0.00000   0.00000  -0.01647  -0.01716  -7.07128
   Y15        1.85371   0.00000   0.00000   0.01310   0.01355   1.86725
   Z15        2.18156  -0.00001   0.00000  -0.03695  -0.03538   2.14618
   X16       -6.30318  -0.00000   0.00000   0.01295   0.01239  -6.29079
   Y16       -1.28324  -0.00000   0.00000  -0.02727  -0.02506  -1.30829
   Z16       -4.87631  -0.00001   0.00000  -0.01699  -0.01620  -4.89251
   X17       -2.62989  -0.00000   0.00000   0.00669   0.00597  -2.62392
   Y17       -4.12376  -0.00002   0.00000  -0.00748  -0.00604  -4.12980
   Z17       -2.24016   0.00002   0.00000   0.00931   0.00948  -2.23067
   X18       -1.29932   0.00001   0.00000   0.00490   0.00427  -1.29505
   Y18       -2.84515  -0.00002   0.00000  -0.02402  -0.02216  -2.86731
   Z18       -4.02593  -0.00002   0.00000  -0.00389  -0.00336  -4.02928
   X19       -1.34756  -0.00002   0.00000   0.00844   0.00763  -1.33993
   Y19       -5.61517   0.00002   0.00000   0.00970   0.01068  -5.60449
   Z19       -0.58464  -0.00004   0.00000   0.02331   0.02314  -0.56150
   X20        1.26632  -0.00001   0.00000   0.00470   0.00407   1.27039
   Y20       -2.95069  -0.00002   0.00000  -0.02523  -0.02340  -2.97410
   Z20       -4.16318  -0.00004   0.00000  -0.00556  -0.00498  -4.16816
   X21       -2.39451   0.00001   0.00000   0.00359   0.00303  -2.39148
   Y21       -1.68490  -0.00000   0.00000  -0.03696  -0.03473  -1.71963
   Z21       -5.30743  -0.00000   0.00000  -0.01448  -0.01368  -5.32111
   X22        1.21765   0.00000   0.00000   0.00857   0.00776   1.22541
   Y22       -5.76967  -0.00001   0.00000   0.01079   0.01170  -5.75797
   Z22       -0.56590   0.00002   0.00000   0.02291   0.02278  -0.54312
   X23       -2.49363  -0.00001   0.00000   0.00969   0.00882  -2.48481
   Y23       -6.57661   0.00002   0.00000   0.02314   0.02380  -6.55281
   Z23        0.81640   0.00001   0.00000   0.03356   0.03312   0.84952
   X24        2.65176   0.00001   0.00000   0.00683   0.00611   2.65787
   Y24       -4.24432  -0.00001   0.00000  -0.00670  -0.00540  -4.24973
   Z24       -2.24562   0.00003   0.00000   0.00539   0.00569  -2.23993
   X25        2.21984   0.00000   0.00000   0.00315   0.00259   2.22243
   Y25       -1.89211  -0.00001   0.00000  -0.03968  -0.03750  -1.92961
   Z25       -5.62819   0.00000   0.00000  -0.01700  -0.01612  -5.64431
   X26        2.10710   0.00000   0.00000   0.01014   0.00925   2.11636
   Y26       -6.87652   0.00002   0.00000   0.02594   0.02645  -6.85007
   Z26        0.90225   0.00002   0.00000   0.03340   0.03301   0.93526
   X27        5.14724   0.00002   0.00000   0.00734   0.00662   5.15386
   Y27       -4.04836  -0.00006   0.00000  -0.00639  -0.00520  -4.05356
   Z27       -2.04706   0.00006   0.00000  -0.00149  -0.00107  -2.04814
   X28        6.48798  -0.00001   0.00000   0.01156   0.01075   6.49873
   Y28       -4.85994   0.00002   0.00000   0.01600   0.01657  -4.84337
   Z28        0.24999  -0.00004   0.00000   0.00367   0.00393   0.25392
   X29        6.25596   0.00001   0.00000   0.01018   0.00931   6.26526
   Y29       -6.89149   0.00001   0.00000   0.01934   0.01983  -6.87166
   Z29        0.54857   0.00000   0.00000   0.02511   0.02484   0.57341
   X30        5.71138  -0.00002   0.00000   0.01593   0.01510   5.72648
   Y30       -3.80071   0.00001   0.00000   0.03341   0.03359  -3.76712
   Z30        1.86229  -0.00001   0.00000  -0.00566  -0.00515   1.85714
   X31        6.55977   0.00001   0.00000   0.00609   0.00546   6.56523
   Y31       -2.08441   0.00003   0.00000  -0.02142  -0.01992  -2.10432
   Z31       -3.40385  -0.00002   0.00000  -0.02485  -0.02389  -3.42774
   X32        7.02906  -0.00001   0.00000   0.00072   0.00013   7.02919
   Y32       -2.73993  -0.00001   0.00000  -0.04131  -0.03933  -2.77927
   Z32       -5.31363  -0.00000   0.00000  -0.01932  -0.01852  -5.33215
   X33        5.39536   0.00003   0.00000   0.00788   0.00730   5.40266
   Y33       -0.38086  -0.00001   0.00000  -0.02129  -0.01972  -0.40058
   Z33       -3.52270  -0.00001   0.00000  -0.03938  -0.03802  -3.56072
   X34       -2.74829  -0.00004   0.00000  -0.01483  -0.01558  -2.76387
   Y34       -0.99851   0.00000   0.00000   0.00978   0.01017  -0.98834
   Z34        1.92682   0.00003   0.00000   0.00052   0.00149   1.92831
   X35       -2.95689   0.00005   0.00000  -0.02589  -0.02676  -2.98366
   Y35       -2.65699  -0.00005   0.00000   0.00832   0.00805  -2.64894
   Z35        4.51112  -0.00014   0.00000  -0.00161  -0.00107   4.51005
   X36       -5.22557   0.00001   0.00000  -0.02147  -0.02238  -5.24795
   Y36       -4.24225   0.00002   0.00000   0.00332   0.00316  -4.23909
   Z36        4.36767  -0.00002   0.00000  -0.01580  -0.01572   4.35194
   X37       -0.53596  -0.00003   0.00000  -0.02546  -0.02638  -0.56234
   Y37       -3.93029   0.00004   0.00000   0.01376   0.01331  -3.91698
   Z37        4.94972  -0.00000   0.00000   0.01156   0.01184   4.96157
   X38       -1.38644  -0.00001   0.00000   0.00114   0.00057  -1.38586
   Y38        4.72303   0.00008   0.00000   0.01009   0.01075   4.73378
   Z38        0.66010   0.00011   0.00000   0.02401   0.02648   0.68658
   X39       -0.49826  -0.00011   0.00000  -0.01548  -0.01600  -0.51427
   Y39        3.95675   0.00004   0.00000   0.01064   0.01189   3.96864
   Z39       -1.71882   0.00003   0.00000   0.01731   0.01961  -1.69921
   X40       -1.99617  -0.00003   0.00000  -0.03101  -0.03146  -2.02763
   Y40        4.23340   0.00001   0.00000   0.01102   0.01286   4.24626
   Z40       -3.86596  -0.00001   0.00000   0.02802   0.03034  -3.83562
   X41       -4.41731  -0.00008   0.00000  -0.03048  -0.03091  -4.44822
   Y41        5.26444   0.00001   0.00000   0.00959   0.01144   5.27588
   Z41       -3.69869  -0.00000   0.00000   0.04559   0.04810  -3.65058
   X42       -5.32863  -0.00012   0.00000  -0.01420  -0.01467  -5.34330
   Y42        6.01492   0.00003   0.00000   0.00804   0.00931   6.02424
   Z42       -1.34857   0.00006   0.00000   0.05242   0.05510  -1.29347
   X43       -3.81562  -0.00003   0.00000   0.00133   0.00079  -3.81484
   Y43        5.74891   0.00000   0.00000   0.00841   0.00911   5.75801
   Z43        0.79454   0.00013   0.00000   0.04157   0.04423   0.83877
   X44        1.32986   0.00018   0.00000  -0.01563  -0.01617   1.31369
   Y44        3.04456  -0.00012   0.00000   0.01079   0.01203   3.05658
   Z44       -1.83850  -0.00007   0.00000   0.00312   0.00524  -1.83326
   X45       -1.25676   0.00001   0.00000  -0.04343  -0.04384  -1.30060
   Y45        3.65027   0.00001   0.00000   0.01254   0.01482   3.66509
   Z45       -5.69322  -0.00001   0.00000   0.02242   0.02462  -5.66860
   X46       -5.57528   0.00000   0.00000  -0.04231  -0.04268  -5.61796
   Y46        5.48758   0.00001   0.00000   0.00987   0.01218   5.49975
   Z46       -5.37965   0.00001   0.00000   0.05378   0.05632  -5.32334
   X47       -7.21144   0.00010   0.00000  -0.01308  -0.01354  -7.22498
   Y47        6.81760  -0.00003   0.00000   0.00700   0.00828   6.82588
   Z47       -1.17798  -0.00002   0.00000   0.06570   0.06853  -1.10945
   X48       -4.54027   0.00002   0.00000   0.01391   0.01333  -4.52694
   Y48        6.36473  -0.00001   0.00000   0.00759   0.00784   6.37257
   Z48        2.61854  -0.00006   0.00000   0.04659   0.04938   2.66792
   X49        1.04882   0.00001   0.00000   0.02124   0.02052   1.06933
   Y49        2.41006   0.00025   0.00000   0.01097   0.01070   2.42076
   Z49        4.08578  -0.00000   0.00000   0.01037   0.01232   4.09810
   X50       -0.85459  -0.00002   0.00000  -0.01226  -0.01299  -0.86758
   Y50       -0.54965  -0.00002   0.00000   0.01290   0.01337  -0.53628
   Z50        1.39046   0.00014   0.00000   0.01271   0.01385   1.40432
   X51        3.13821  -0.00013   0.00000   0.01184   0.01112   3.14933
   Y51        1.01684   0.00002   0.00000   0.00597   0.00597   1.02282
   Z51        2.80783  -0.00006   0.00000  -0.00004   0.00162   2.80945
   X52        2.32179   0.00007   0.00000   0.00255   0.00186   2.32365
   Y52       -0.02288   0.00005   0.00000   0.01538   0.01595  -0.00694
   Z52        0.69587  -0.00014   0.00000  -0.00124   0.00013   0.69600
   X53        3.83403   0.00049   0.00000   0.01359   0.01276   3.84679
   Y53       -0.74797   0.00017   0.00000  -0.00156  -0.00206  -0.75003
   Z53        4.69570   0.00010   0.00000  -0.00714  -0.00592   4.68979
   X54        2.46226  -0.00030   0.00000   0.00912   0.00826   2.47051
   Y54       -1.97493  -0.00024   0.00000   0.00240   0.00193  -1.97300
   Z54        4.74321   0.00000   0.00000  -0.00532  -0.00445   4.73876
   X55        5.48140  -0.00024   0.00000   0.01721   0.01653   5.49793
   Y55        2.77325   0.00045   0.00000  -0.00252  -0.00253   2.77072
   Z55        2.61633   0.00020   0.00000  -0.00251  -0.00035   2.61598
   X56        5.47000  -0.00007   0.00000   0.02263   0.02194   5.49195
   Y56        4.07330  -0.00012   0.00000  -0.00188  -0.00230   4.07101
   Z56        4.23299  -0.00018   0.00000  -0.00381  -0.00131   4.23167
   X57        7.12053   0.00028   0.00000   0.01335   0.01263   7.13316
   Y57        1.53979  -0.00036   0.00000  -0.01019  -0.01031   1.52947
   Z57        2.91292   0.00001   0.00000  -0.00414  -0.00224   2.91068
   X58        0.23108   0.00007   0.00000   0.01770   0.01706   0.24814
   Y58        4.71067   0.00009   0.00000   0.01057   0.01058   4.72125
   Z58        3.05928   0.00003   0.00000   0.01280   0.01531   3.07459
   X59       -0.91117   0.00007   0.00000   0.02846   0.02781  -0.88336
   Y59        5.59589  -0.00007   0.00000   0.01292   0.01259   5.60848
   Z59        4.54781  -0.00009   0.00000   0.01912   0.02183   4.56964
   X60        1.84906  -0.00012   0.00000   0.01681   0.01622   1.86527
   Y60        5.97879  -0.00012   0.00000   0.00809   0.00814   5.98694
   Z60        2.75044   0.00007   0.00000   0.00158   0.00446   2.75490
   X61       -3.33419   0.00001   0.00000  -0.04471  -0.04559  -3.37979
   Y61       -0.41185   0.00002   0.00000   0.00603   0.00514  -0.40671
   Z61        6.98150  -0.00000   0.00000  -0.00232  -0.00122   6.98028
   X62       -1.68420  -0.00000   0.00000  -0.04590  -0.04675  -1.73095
   Y62        0.82796  -0.00003   0.00000   0.00840   0.00749   0.83545
   Z62        6.88000  -0.00001   0.00000   0.00809   0.00955   6.88955
   X63       -5.08408  -0.00004   0.00000  -0.04441  -0.04526  -5.12934
   Y63        0.62620   0.00003   0.00000   0.00363   0.00288   0.62907
   Z63        6.64441  -0.00001   0.00000  -0.01203  -0.01071   6.63370
   X64       -3.42008  -0.00000   0.00000  -0.05341  -0.05437  -3.47445
   Y64       -1.44366  -0.00001   0.00000   0.00478   0.00344  -1.44022
   Z64        8.76472   0.00004   0.00000  -0.00331  -0.00248   8.76224
   X65        5.86095  -0.00017   0.00000   0.01846   0.01789   5.87884
   Y65        4.22201  -0.00015   0.00000  -0.00669  -0.00608   4.21592
   Z65        0.15195  -0.00013   0.00000  -0.00433  -0.00179   0.15016
   X66        5.68012   0.00003   0.00000   0.01500   0.01444   5.69456
   Y66        2.90111   0.00007   0.00000  -0.00898  -0.00796   2.89315
   Z66       -1.43321   0.00017   0.00000  -0.00135   0.00085  -1.43235
   X67        4.37542  -0.00005   0.00000   0.02048   0.01996   4.39538
   Y67        5.63541  -0.00001   0.00000  -0.00463  -0.00391   5.63150
   Z67       -0.13436   0.00002   0.00000  -0.00535  -0.00248  -0.13684
   X68        8.43241   0.00019   0.00000   0.02146   0.02093   8.45334
   Y68        5.53166  -0.00007   0.00000  -0.01201  -0.01145   5.52021
   Z68        0.06270  -0.00003   0.00000  -0.00792  -0.00497   0.05774
   X69        8.70865  -0.00004   0.00000   0.02249   0.02204   8.73069
   Y69        6.56275  -0.00000   0.00000  -0.01703  -0.01602   6.54673
   Z69       -1.70873  -0.00005   0.00000  -0.01079  -0.00757  -1.71630
   X70        8.62622  -0.00001   0.00000   0.02347   0.02294   8.64916
   Y70        6.88183  -0.00001   0.00000  -0.00840  -0.00824   6.87360
   Z70        1.61938   0.00004   0.00000  -0.01120  -0.00790   1.61148
   X71        9.97259   0.00002   0.00000   0.01944   0.01887   9.99146
   Y71        4.15785   0.00005   0.00000  -0.01365  -0.01317   4.14468
   Z71        0.24661   0.00004   0.00000  -0.00399  -0.00135   0.24526
   X72        9.21841  -0.00001   0.00000   0.01105   0.01028   9.22869
   Y72       -4.12472   0.00001   0.00000   0.00728   0.00792  -4.11680
   Z72       -0.30714  -0.00000   0.00000  -0.01047  -0.00995  -0.31708
   X73       10.32098  -0.00000   0.00000   0.01556   0.01475  10.33573
   Y73       -3.89996  -0.00000   0.00000   0.02365   0.02382  -3.87614
   Z73        1.42170  -0.00003   0.00000  -0.01555  -0.01493   1.40676
   X74       10.12285   0.00000   0.00000   0.00656   0.00578  10.12863
   Y74       -5.56912   0.00000   0.00000  -0.00581  -0.00490  -5.57401
   Z74       -1.48223   0.00001   0.00000   0.00218   0.00236  -1.47987
   X75        8.91560   0.00001   0.00000   0.01053   0.00986   8.92546
   Y75       -1.65151   0.00001   0.00000  -0.00744  -0.00642  -1.65792
   Z75       -1.77778  -0.00005   0.00000  -0.03513  -0.03399  -1.81177
   X76        8.53797  -0.00000   0.00000   0.01548   0.01482   8.55279
   Y76       -0.11174  -0.00001   0.00000   0.00643   0.00714  -0.10460
   Z76       -0.45489  -0.00000   0.00000  -0.04985  -0.04833  -0.50322
   X77       10.56860   0.00000   0.00000   0.00839   0.00777  10.57637
   Y77       -1.15574  -0.00001   0.00000  -0.02103  -0.01975  -1.17549
   Z77       -2.90950  -0.00001   0.00000  -0.04417  -0.04287  -2.95236
         Item               Value     Threshold  Converged?
 Maximum Force            0.000492     0.000450     NO 
 RMS     Force            0.000084     0.000300     YES
 Maximum Displacement     0.068534     0.001800     NO 
 RMS     Displacement     0.019746     0.001200     NO 
 Predicted change in Energy=-3.224375D-05
 GradGradGradGradGradGradGradGradGradGradGradGradGradGradGradGradGradGrad

 Leave Link  103 at Thu Feb  7 17:28:48 2019, MaxMem=   104857600 cpu:              22.3 elap:               1.0
 (Enter /home/xinyan/g16/l9999.exe)
 1\1\GINC-TSE4\Force\RM062X\6-31G(d)\C27H41N3O5S1\STEVETSE\07-Feb-2019\
 0\\#p M062X/6-31G* em=gd3 force int=ultrafine\\Title\\0,1\C,-4.90669,0
 .22161,-0.50729\C,-5.05574,-1.04878,-1.3497\C,-3.70258,-1.4818,-1.9267
 7\C,-2.73136,-1.7132,-0.77495\C,-2.53615,-0.41678,0.05415\C,-3.88667,0
 .03732,0.62062\H,-3.79777,-2.39019,-2.53138\H,-5.45881,-1.85899,-0.728
 05\H,-5.76785,-0.88632,-2.16488\H,-4.57917,1.04481,-1.15564\H,-5.87613
 ,0.50917,-0.08737\H,-3.13132,-2.4899,-0.11569\H,-2.19452,0.35878,-0.64
 361\H,-4.25332,-0.70514,1.33701\H,-3.73288,0.98094,1.15443\H,-3.3355,-
 0.67906,-2.58043\N,-1.39168,-2.1822,-1.18544\C,-0.68757,-1.50559,-2.13
 043\C,-0.7131,-2.97142,-0.30938\C,0.67011,-1.56144,-2.20306\H,-1.26712
 ,-0.89161,-2.80857\C,0.64435,-3.05318,-0.29946\H,-1.31957,-3.48019,0.4
 3202\C,1.40325,-2.246,-1.18833\H,1.17469,-1.00126,-2.97831\H,1.11503,-
 3.6389,0.47745\N,2.7238,-2.1423,-1.08326\C,3.43329,-2.57177,0.13229\H,
 3.31051,-3.64682,0.29029\H,3.02233,-2.01125,0.98548\C,3.47128,-1.10302
 ,-1.80124\H,3.71962,-1.44991,-2.81185\H,2.8551,-0.20154,-1.86413\N,-1.
 45433,-0.52839,1.01963\S,-1.56472,-1.40602,2.38718\O,-2.76525,-2.2449,
 2.31127\O,-0.28362,-2.07982,2.61928\C,-0.73367,2.49932,0.34931\C,-0.26
 367,2.09382,-0.90956\C,-1.05633,2.24022,-2.04578\C,-2.33754,2.78582,-1
 .95726\C,-2.81979,3.18296,-0.71363\C,-2.01914,3.04219,0.42045\H,0.7037
 3,1.61111,-0.97289\H,-0.66505,1.93164,-3.01272\H,-2.95031,2.9039,-2.84
 679\H,-3.81613,3.60772,-0.62336\H,-2.40261,3.36807,1.38567\O,0.55501,1
 .27535,2.1621\H,-0.45223,-0.29086,0.7358\C,1.66067,0.53809,1.48584\O,1
 .22864,-0.01211,0.36824\O,2.02888,-0.39581,2.48486\H,1.30297,-1.04509,
 2.51\C,2.90063,1.46754,1.3845\H,2.8946,2.1555,2.24\H,3.76802,0.81482,1
 .54145\C,0.12228,2.49278,1.6189\H,-0.48217,2.96122,2.4066\H,0.97848,3.
 16384,1.45547\C,-1.76438,-0.21794,3.69445\H,-0.89124,0.43814,3.64074\H
 ,-2.69038,0.33137,3.51607\H,-1.80983,-0.76395,4.63809\C,3.10148,2.2341
 9,0.08041\H,3.00579,1.5352,-0.75842\H,2.31537,2.98213,-0.0711\C,4.4622
 4,2.92723,0.03318\H,4.60842,3.47286,-0.90422\H,4.5648,3.64171,0.85694\
 H,5.27727,2.20024,0.1305\C,4.87817,-2.18271,-0.16253\H,5.46163,-2.0637
 7,0.75233\H,5.35678,-2.94705,-0.78436\C,4.71793,-0.87394,-0.94076\H,4.
 5181,-0.05913,-0.24072\H,5.59266,-0.61159,-1.53964\\Version=ES64L-G16R
 evA.03\State=1-A\HF=-1991.3589555\RMSD=9.253e-09\RMSF=8.389e-05\Dipole
 =-0.791154,-0.6258563,-2.596462\Quadrupole=8.1248245,-5.8203553,-2.304
 4691,-9.1103767,-4.0748673,7.5166602\PG=C01 [X(C27H41N3O5S1)]\\@


 ALL PAPERS THAT YOU SAVE WILL NEVER BE NEEDED UNTIL
 SUCH TIME AS THEY ARE DISPOSED OF, WHEN THEY BECOME
 ESSENTIAL.

           -- JOHN CORCORAN IN
              PAUL DICKSON'S "THE OFFICIAL RULES"
 Job cpu time:       0 days  1 hours 17 minutes 55.9 seconds.
 Elapsed time:       0 days  0 hours  3 minutes 16.0 seconds.
 File lengths (MBytes):  RWF=    216 Int=      0 D2E=      0 Chk=     25 Scr=      1
 Normal termination of Gaussian 16 at Thu Feb  7 17:28:49 2019.
