 Entering Gaussian System, Link 0=g16
 Input=C27N3H41SO5-134.gjf
 Output=C27N3H41SO5-134.log
 Initial command:
 /home/xinyan/g16/l1.exe "/local/home/tmp/Gau-21613.inp" -scrdir="/local/home/tmp/"
 Entering Link 1 = /home/xinyan/g16/l1.exe PID=     21614.
  
 Copyright (c) 1988,1990,1992,1993,1995,1998,2003,2009,2016,
            Gaussian, Inc.  All Rights Reserved.
  
 This is part of the Gaussian(R) 16 program.  It is based on
 the Gaussian(R) 09 system (copyright 2009, Gaussian, Inc.),
 the Gaussian(R) 03 system (copyright 2003, Gaussian, Inc.),
 the Gaussian(R) 98 system (copyright 1998, Gaussian, Inc.),
 the Gaussian(R) 94 system (copyright 1995, Gaussian, Inc.),
 the Gaussian 92(TM) system (copyright 1992, Gaussian, Inc.),
 the Gaussian 90(TM) system (copyright 1990, Gaussian, Inc.),
 the Gaussian 88(TM) system (copyright 1988, Gaussian, Inc.),
 the Gaussian 86(TM) system (copyright 1986, Carnegie Mellon
 University), and the Gaussian 82(TM) system (copyright 1983,
 Carnegie Mellon University). Gaussian is a federally registered
 trademark of Gaussian, Inc.
  
 This software contains proprietary and confidential information,
 including trade secrets, belonging to Gaussian, Inc.
  
 This software is provided under written license and may be
 used, copied, transmitted, or stored only in accord with that
 written license.
  
 The following legend is applicable only to US Government
 contracts under FAR:
  
                    RESTRICTED RIGHTS LEGEND
  
 Use, reproduction and disclosure by the US Government is
 subject to restrictions as set forth in subparagraphs (a)
 and (c) of the Commercial Computer Software - Restricted
 Rights clause in FAR 52.227-19.
  
 Gaussian, Inc.
 340 Quinnipiac St., Bldg. 40, Wallingford CT 06492
  
  
 ---------------------------------------------------------------
 Warning -- This program may not be used in any manner that
 competes with the business of Gaussian, Inc. or will provide
 assistance to any competitor of Gaussian, Inc.  The licensee
 of this program is prohibited from giving any competitor of
 Gaussian, Inc. access to this program.  By using this program,
 the user acknowledges that Gaussian, Inc. is engaged in the
 business of creating and licensing software in the field of
 computational chemistry and represents and warrants to the
 licensee that it is not a competitor of Gaussian, Inc. and that
 it will not use this program in any manner prohibited above.
 ---------------------------------------------------------------
  

 Cite this work as:
 Gaussian 16, Revision A.03,
 M. J. Frisch, G. W. Trucks, H. B. Schlegel, G. E. Scuseria, 
 M. A. Robb, J. R. Cheeseman, G. Scalmani, V. Barone, 
 G. A. Petersson, H. Nakatsuji, X. Li, M. Caricato, A. V. Marenich, 
 J. Bloino, B. G. Janesko, R. Gomperts, B. Mennucci, H. P. Hratchian, 
 J. V. Ortiz, A. F. Izmaylov, J. L. Sonnenberg, D. Williams-Young, 
 F. Ding, F. Lipparini, F. Egidi, J. Goings, B. Peng, A. Petrone, 
 T. Henderson, D. Ranasinghe, V. G. Zakrzewski, J. Gao, N. Rega, 
 G. Zheng, W. Liang, M. Hada, M. Ehara, K. Toyota, R. Fukuda, 
 J. Hasegawa, M. Ishida, T. Nakajima, Y. Honda, O. Kitao, H. Nakai, 
 T. Vreven, K. Throssell, J. A. Montgomery, Jr., J. E. Peralta, 
 F. Ogliaro, M. J. Bearpark, J. J. Heyd, E. N. Brothers, K. N. Kudin, 
 V. N. Staroverov, T. A. Keith, R. Kobayashi, J. Normand, 
 K. Raghavachari, A. P. Rendell, J. C. Burant, S. S. Iyengar, 
 J. Tomasi, M. Cossi, J. M. Millam, M. Klene, C. Adamo, R. Cammi, 
 J. W. Ochterski, R. L. Martin, K. Morokuma, O. Farkas, 
 J. B. Foresman, and D. J. Fox, Gaussian, Inc., Wallingford CT, 2016.
 
 ******************************************
 Gaussian 16:  ES64L-G16RevA.03 25-Dec-2016
                 7-Feb-2019 
 ******************************************
 %nproc=24
 Will use up to   24 processors via shared memory.
 ------------------------------------------
 #p M062X/6-31G* em=gd3 force int=ultrafine
 ------------------------------------------
 1/10=7,30=1,38=1/1,3;
 2/12=2,17=6,18=5,40=1/2;
 3/5=1,6=6,7=1,11=2,25=1,30=1,71=1,74=-55,75=-5,124=31/1,2,3;
 4//1;
 5/5=2,38=5/2;
 6/7=2,8=2,9=2,10=2,28=1/1;
 7/29=1/1,2,3,16;
 1/10=7,30=1/3;
 99//99;
 Leave Link    1 at Thu Feb  7 15:56:53 2019, MaxMem=           0 cpu:               2.5 elap:               0.1
 (Enter /home/xinyan/g16/l101.exe)
 -----
 Title
 -----
 Symbolic Z-matrix:
 Charge =  0 Multiplicity = 1
 C                    -4.89715   0.23561  -0.45141 
 C                    -5.07068  -1.02895  -1.29802 
 C                    -3.73121  -1.47117  -1.9002 
 C                    -2.74425  -1.71693  -0.76502 
 C                    -2.52339  -0.42554   0.06516 
 C                    -3.85859   0.03912   0.65758 
 H                    -3.84513  -2.376    -2.50678 
 H                    -5.47038  -1.83918  -0.67416 
 H                    -5.79507  -0.85573  -2.10001 
 H                    -4.57447   1.05941  -1.1013 
 H                    -5.85686   0.52844  -0.01325 
 H                    -3.14116  -2.49248  -0.10277 
 H                    -2.18818   0.34966  -0.63581 
 H                    -4.21817  -0.70159   1.37971 
 H                    -3.6861    0.98051   1.19001 
 H                    -3.3668   -0.66916  -2.55637 
 N                    -1.41418  -2.19524  -1.19609 
 C                    -0.7086   -1.49992  -2.12707 
 C                    -0.73658  -3.00409  -0.33779 
 C                     0.64912  -1.55375  -2.19881 
 H                    -1.28742  -0.86934  -2.79066 
 C                     0.62081  -3.09036  -0.33138 
 H                    -1.3432   -3.52358   0.39613 
 C                     1.38132  -2.26208  -1.19931 
 H                     1.15519  -0.97537  -2.95972 
 H                     1.09017  -3.69447   0.43199 
 N                     2.70074  -2.157    -1.08601 
 C                     3.40306  -2.61259   0.12404 
 H                     3.28536  -3.69167   0.25577 
 H                     2.98331  -2.07254   0.98572 
 C                     3.4452   -1.08817  -1.76454 
 H                     3.70943  -1.40267  -2.78163 
 H                     2.81913  -0.19257  -1.80326 
 N                    -1.42596  -0.55049   1.01119 
 S                    -1.51559  -1.43439   2.37696 
 O                    -2.71548  -2.27488   2.30904 
 O                    -0.22905  -2.10404   2.58768 
 C                    -0.72859   2.4806    0.29014 
 C                    -0.24025   2.03814  -0.94937 
 C                    -1.01041   2.16606  -2.10355 
 C                    -2.28543   2.73038  -2.05365 
 C                    -2.78413   3.16743  -0.82988 
 C                    -2.0074    3.04372   0.32253 
 H                     0.72222   1.54046  -0.98144 
 H                    -0.60476   1.82866  -3.05516 
 H                    -2.87949   2.83406  -2.95751 
 H                    -3.77432   3.61061  -0.7702 
 H                    -2.4042    3.40042   1.27094 
 O                     0.54416   1.28295   2.13186 
 H                    -0.43244  -0.30159   0.72523 
 C                     1.68167   0.56087   1.48684 
 O                     1.28476  -0.01483   0.36955 
 O                     2.04813  -0.35227   2.50528 
 H                     1.34522  -1.02749   2.50705 
 C                     2.89754   1.52188   1.40045 
 H                     2.8544    2.2192    2.24694 
 H                     3.78051   0.89655   1.58227 
 C                     0.09858   2.49049   1.57911 
 H                    -0.534     2.94533   2.35237 
 H                     0.94302   3.18081   1.43573 
 C                    -1.70336  -0.2559    3.69452 
 H                    -0.83459   0.40556   3.63423 
 H                    -2.63449   0.28987   3.53239 
 H                    -1.73409  -0.80946   4.63443 
 C                     3.09974   2.28061   0.09193 
 H                     3.06326   1.56943  -0.74052 
 H                     2.28396   2.98751  -0.09222 
 C                     4.42845   3.03451   0.0756 
 H                     4.57832   3.5756   -0.86376 
 H                     4.47448   3.76299   0.89339 
 H                     5.27118   2.34447   0.20619 
 C                     4.84676  -2.20451  -0.14766 
 H                     5.42332  -2.1122    0.77453 
 H                     5.33456  -2.94394  -0.79219 
 C                     4.67799  -0.87176  -0.88154 
 H                     4.45455  -0.08661  -0.15504 
 H                     5.55595  -0.57542  -1.45941 
 
 ITRead=  0  0  0  0  0  0  0  0  0  0  0  0  0  0  0  0  0  0  0  0
 ITRead=  0  0  0  0  0  0  0  0  0  0  0  0  0  0  0  0  0  0  0  0
 ITRead=  0  0  0  0  0  0  0  0  0  0  0  0  0  0  0  0  0  0  0  0
 ITRead=  0  0  0  0  0  0  0  0  0  0  0  0  0  0  0  0  0
 MicOpt= -1 -1 -1 -1 -1 -1 -1 -1 -1 -1 -1 -1 -1 -1 -1 -1 -1 -1 -1 -1
 MicOpt= -1 -1 -1 -1 -1 -1 -1 -1 -1 -1 -1 -1 -1 -1 -1 -1 -1 -1 -1 -1
 MicOpt= -1 -1 -1 -1 -1 -1 -1 -1 -1 -1 -1 -1 -1 -1 -1 -1 -1 -1 -1 -1
 MicOpt= -1 -1 -1 -1 -1 -1 -1 -1 -1 -1 -1 -1 -1 -1 -1 -1 -1
 NAtoms=     77 NQM=       77 NQMF=       0 NMMI=      0 NMMIF=      0
                NMic=       0 NMicF=      0.
                    Isotopes and Nuclear Properties:
 (Nuclear quadrupole moments (NQMom) in fm**2, nuclear magnetic moments (NMagM)
  in nuclear magnetons)

  Atom         1           2           3           4           5           6           7           8           9          10
 IAtWgt=          12          12          12          12          12          12           1           1           1           1
 AtmWgt=  12.0000000  12.0000000  12.0000000  12.0000000  12.0000000  12.0000000   1.0078250   1.0078250   1.0078250   1.0078250
 NucSpn=           0           0           0           0           0           0           1           1           1           1
 AtZEff=  -0.0000000  -0.0000000  -0.0000000  -0.0000000  -0.0000000  -0.0000000  -0.0000000  -0.0000000  -0.0000000  -0.0000000
 NQMom=    0.0000000   0.0000000   0.0000000   0.0000000   0.0000000   0.0000000   0.0000000   0.0000000   0.0000000   0.0000000
 NMagM=    0.0000000   0.0000000   0.0000000   0.0000000   0.0000000   0.0000000   2.7928460   2.7928460   2.7928460   2.7928460
 AtZNuc=   6.0000000   6.0000000   6.0000000   6.0000000   6.0000000   6.0000000   1.0000000   1.0000000   1.0000000   1.0000000

  Atom        11          12          13          14          15          16          17          18          19          20
 IAtWgt=           1           1           1           1           1           1          14          12          12          12
 AtmWgt=   1.0078250   1.0078250   1.0078250   1.0078250   1.0078250   1.0078250  14.0030740  12.0000000  12.0000000  12.0000000
 NucSpn=           1           1           1           1           1           1           2           0           0           0
 AtZEff=  -0.0000000  -0.0000000  -0.0000000  -0.0000000  -0.0000000  -0.0000000  -0.0000000  -0.0000000  -0.0000000  -0.0000000
 NQMom=    0.0000000   0.0000000   0.0000000   0.0000000   0.0000000   0.0000000   2.0440000   0.0000000   0.0000000   0.0000000
 NMagM=    2.7928460   2.7928460   2.7928460   2.7928460   2.7928460   2.7928460   0.4037610   0.0000000   0.0000000   0.0000000
 AtZNuc=   1.0000000   1.0000000   1.0000000   1.0000000   1.0000000   1.0000000   7.0000000   6.0000000   6.0000000   6.0000000

  Atom        21          22          23          24          25          26          27          28          29          30
 IAtWgt=           1          12           1          12           1           1          14          12           1           1
 AtmWgt=   1.0078250  12.0000000   1.0078250  12.0000000   1.0078250   1.0078250  14.0030740  12.0000000   1.0078250   1.0078250
 NucSpn=           1           0           1           0           1           1           2           0           1           1
 AtZEff=  -0.0000000  -0.0000000  -0.0000000  -0.0000000  -0.0000000  -0.0000000  -0.0000000  -0.0000000  -0.0000000  -0.0000000
 NQMom=    0.0000000   0.0000000   0.0000000   0.0000000   0.0000000   0.0000000   2.0440000   0.0000000   0.0000000   0.0000000
 NMagM=    2.7928460   0.0000000   2.7928460   0.0000000   2.7928460   2.7928460   0.4037610   0.0000000   2.7928460   2.7928460
 AtZNuc=   1.0000000   6.0000000   1.0000000   6.0000000   1.0000000   1.0000000   7.0000000   6.0000000   1.0000000   1.0000000

  Atom        31          32          33          34          35          36          37          38          39          40
 IAtWgt=          12           1           1          14          32          16          16          12          12          12
 AtmWgt=  12.0000000   1.0078250   1.0078250  14.0030740  31.9720718  15.9949146  15.9949146  12.0000000  12.0000000  12.0000000
 NucSpn=           0           1           1           2           0           0           0           0           0           0
 AtZEff=  -0.0000000  -0.0000000  -0.0000000  -0.0000000  -0.0000000  -0.0000000  -0.0000000  -0.0000000  -0.0000000  -0.0000000
 NQMom=    0.0000000   0.0000000   0.0000000   2.0440000   0.0000000   0.0000000   0.0000000   0.0000000   0.0000000   0.0000000
 NMagM=    0.0000000   2.7928460   2.7928460   0.4037610   0.0000000   0.0000000   0.0000000   0.0000000   0.0000000   0.0000000
 AtZNuc=   6.0000000   1.0000000   1.0000000   7.0000000  16.0000000   8.0000000   8.0000000   6.0000000   6.0000000   6.0000000

  Atom        41          42          43          44          45          46          47          48          49          50
 IAtWgt=          12          12          12           1           1           1           1           1          16           1
 AtmWgt=  12.0000000  12.0000000  12.0000000   1.0078250   1.0078250   1.0078250   1.0078250   1.0078250  15.9949146   1.0078250
 NucSpn=           0           0           0           1           1           1           1           1           0           1
 AtZEff=  -0.0000000  -0.0000000  -0.0000000  -0.0000000  -0.0000000  -0.0000000  -0.0000000  -0.0000000  -0.0000000  -0.0000000
 NQMom=    0.0000000   0.0000000   0.0000000   0.0000000   0.0000000   0.0000000   0.0000000   0.0000000   0.0000000   0.0000000
 NMagM=    0.0000000   0.0000000   0.0000000   2.7928460   2.7928460   2.7928460   2.7928460   2.7928460   0.0000000   2.7928460
 AtZNuc=   6.0000000   6.0000000   6.0000000   1.0000000   1.0000000   1.0000000   1.0000000   1.0000000   8.0000000   1.0000000

  Atom        51          52          53          54          55          56          57          58          59          60
 IAtWgt=          12          16          16           1          12           1           1          12           1           1
 AtmWgt=  12.0000000  15.9949146  15.9949146   1.0078250  12.0000000   1.0078250   1.0078250  12.0000000   1.0078250   1.0078250
 NucSpn=           0           0           0           1           0           1           1           0           1           1
 AtZEff=  -0.0000000  -0.0000000  -0.0000000  -0.0000000  -0.0000000  -0.0000000  -0.0000000  -0.0000000  -0.0000000  -0.0000000
 NQMom=    0.0000000   0.0000000   0.0000000   0.0000000   0.0000000   0.0000000   0.0000000   0.0000000   0.0000000   0.0000000
 NMagM=    0.0000000   0.0000000   0.0000000   2.7928460   0.0000000   2.7928460   2.7928460   0.0000000   2.7928460   2.7928460
 AtZNuc=   6.0000000   8.0000000   8.0000000   1.0000000   6.0000000   1.0000000   1.0000000   6.0000000   1.0000000   1.0000000

  Atom        61          62          63          64          65          66          67          68          69          70
 IAtWgt=          12           1           1           1          12           1           1          12           1           1
 AtmWgt=  12.0000000   1.0078250   1.0078250   1.0078250  12.0000000   1.0078250   1.0078250  12.0000000   1.0078250   1.0078250
 NucSpn=           0           1           1           1           0           1           1           0           1           1
 AtZEff=  -0.0000000  -0.0000000  -0.0000000  -0.0000000  -0.0000000  -0.0000000  -0.0000000  -0.0000000  -0.0000000  -0.0000000
 NQMom=    0.0000000   0.0000000   0.0000000   0.0000000   0.0000000   0.0000000   0.0000000   0.0000000   0.0000000   0.0000000
 NMagM=    0.0000000   2.7928460   2.7928460   2.7928460   0.0000000   2.7928460   2.7928460   0.0000000   2.7928460   2.7928460
 AtZNuc=   6.0000000   1.0000000   1.0000000   1.0000000   6.0000000   1.0000000   1.0000000   6.0000000   1.0000000   1.0000000

  Atom        71          72          73          74          75          76          77
 IAtWgt=           1          12           1           1          12           1           1
 AtmWgt=   1.0078250  12.0000000   1.0078250   1.0078250  12.0000000   1.0078250   1.0078250
 NucSpn=           1           0           1           1           0           1           1
 AtZEff=  -0.0000000  -0.0000000  -0.0000000  -0.0000000  -0.0000000  -0.0000000  -0.0000000
 NQMom=    0.0000000   0.0000000   0.0000000   0.0000000   0.0000000   0.0000000   0.0000000
 NMagM=    2.7928460   0.0000000   2.7928460   2.7928460   0.0000000   2.7928460   2.7928460
 AtZNuc=   1.0000000   6.0000000   1.0000000   1.0000000   6.0000000   1.0000000   1.0000000
 Leave Link  101 at Thu Feb  7 15:56:54 2019, MaxMem=   104857600 cpu:               5.7 elap:               0.3
 (Enter /home/xinyan/g16/l103.exe)

 GradGradGradGradGradGradGradGradGradGradGradGradGradGradGradGradGradGrad
 Berny optimization.
 Initialization pass.
 Trust Radius=3.00D-01 FncErr=1.00D-07 GrdErr=1.00D-07 EigMax=2.50D+02 EigMin=1.00D-04
 Number of steps in this run=      2 maximum allowed number of steps=      2.
 GradGradGradGradGradGradGradGradGradGradGradGradGradGradGradGradGradGrad

 Leave Link  103 at Thu Feb  7 15:56:54 2019, MaxMem=   104857600 cpu:               1.6 elap:               0.1
 (Enter /home/xinyan/g16/l202.exe)
 Stoichiometry    C27H41N3O5S
 Framework group  C1[X(C27H41N3O5S)]
 Deg. of freedom   225
 Full point group                 C1      NOp   1
 Largest Abelian subgroup         C1      NOp   1
 Largest concise Abelian subgroup C1      NOp   1
                         Standard orientation:                         
 ---------------------------------------------------------------------
 Center     Atomic      Atomic             Coordinates (Angstroms)
 Number     Number       Type             X           Y           Z
 ---------------------------------------------------------------------
      1          6           0       -4.781422    0.395348   -0.567850
      2          6           0       -4.955045   -0.891101   -1.380793
      3          6           0       -3.620346   -1.335259   -1.992071
      4          6           0       -2.614378   -1.543894   -0.866184
      5          6           0       -2.393938   -0.230579   -0.071026
      6          6           0       -3.724731    0.235813    0.529888
      7          1           0       -3.734346   -2.255675   -2.574715
      8          1           0       -5.337542   -1.689576   -0.731510
      9          1           0       -5.692855   -0.744365   -2.175801
     10          1           0       -4.476449    1.206027   -1.242326
     11          1           0       -5.737380    0.689739   -0.122590
     12          1           0       -2.993859   -2.306736   -0.179411
     13          1           0       -2.076715    0.530386   -0.795568
     14          1           0       -4.066345   -0.490386    1.275109
     15          1           0       -3.553623    1.191517    1.036645
     16          1           0       -3.273529   -0.546124   -2.672921
     17          7           0       -1.286198   -2.020037   -1.305404
     18          6           0       -0.601278   -1.341054   -2.263477
     19          6           0       -0.588118   -2.801250   -0.437966
     20          6           0        0.755697   -1.383822   -2.354240
     21          1           0       -1.195975   -0.732361   -2.933435
     22          6           0        0.769998   -2.874540   -0.449818
     23          1           0       -1.178724   -3.308345    0.317372
     24          6           0        1.509470   -2.060584   -1.348920
     25          1           0        1.244794   -0.819464   -3.136479
     26          1           0        1.256466   -3.455365    0.320878
     27          7           0        2.829327   -1.940336   -1.258005
     28          6           0        3.553858   -2.359581   -0.047912
     29          1           0        3.448683   -3.436182    0.111743
     30          1           0        3.141608   -1.802617    0.806592
     31          6           0        3.553192   -0.881436   -1.973387
     32          1           0        3.805445   -1.218191   -2.986385
     33          1           0        2.917883    0.007010   -2.024459
     34          7           0       -1.281492   -0.322025    0.861197
     35         16           0       -1.342295   -1.173093    2.249227
     36          8           0       -2.534773   -2.026264    2.219746
     37          8           0       -0.046292   -1.825239    2.456836
     38          6           0       -0.624543    2.696978    0.056350
     39          6           0       -0.150246    2.228984   -1.179229
     40          6           0       -0.938575    2.321398   -2.324497
     41          6           0       -2.218182    2.874727   -2.269206
     42          6           0       -2.703016    3.336830   -1.049074
     43          6           0       -1.908186    3.248644    0.094224
     44          1           0        0.816471    1.739763   -1.213629
     45          1           0       -0.543734    1.964684   -3.273606
     46          1           0       -2.826506    2.950686   -3.166308
     47          1           0       -3.696508    3.771984   -0.985335
     48          1           0       -2.294415    3.624656    1.039532
     49          8           0        0.686917    1.556739    1.907328
     50          1           0       -0.294785   -0.070834    0.554409
     51          6           0        1.821794    0.829866    1.263054
     52          8           0        1.414088    0.223321    0.166157
     53          8           0        2.212169   -0.054620    2.297766
     54          1           0        1.516004   -0.736190    2.326479
     55          6           0        3.026792    1.799896    1.135120
     56          1           0        2.989329    2.517254    1.964972
     57          1           0        3.918428    1.187545    1.318816
     58          6           0        0.221428    2.746158    1.332150
     59          1           0       -0.404090    3.213775    2.103532
     60          1           0        1.056862    3.440697    1.159396
     61          6           0       -1.522121    0.035418    3.540437
     62          1           0       -0.660851    0.703366    3.451075
     63          1           0       -2.460840    0.568263    3.379078
     64          1           0       -1.533553   -0.495274    4.493872
     65          6           0        3.202218    2.528296   -0.194330
     66          1           0        3.160416    1.796675   -1.008617
     67          1           0        2.376929    3.222765   -0.383344
     68          6           0        4.523100    3.294062   -0.248893
     69          1           0        4.653783    3.813425   -1.203262
     70          1           0        4.574064    4.042710    0.550177
     71          1           0        5.374379    2.615393   -0.114231
     72          6           0        4.989327   -1.944673   -0.351065
     73          1           0        5.578506   -1.824426    0.559861
     74          1           0        5.474773   -2.695002   -0.984684
     75          6           0        4.796705   -0.631904   -1.114491
     76          1           0        4.576340    0.168623   -0.404010
     77          1           0        5.663097   -0.341512   -1.712490
 ---------------------------------------------------------------------
 Rotational constants (GHZ):           0.1551131           0.1007469           0.0908092
 Leave Link  202 at Thu Feb  7 15:56:54 2019, MaxMem=   104857600 cpu:               2.5 elap:               0.1
 (Enter /home/xinyan/g16/l301.exe)
 Standard basis: 6-31G(d) (6D, 7F)
 Ernie: Thresh=  0.10000D-02 Tol=  0.10000D-05 Strict=F.
 There are   626 symmetry adapted cartesian basis functions of A   symmetry.
 There are   626 symmetry adapted basis functions of A   symmetry.
   626 basis functions,  1196 primitive gaussians,   626 cartesian basis functions
   140 alpha electrons      140 beta electrons
       nuclear repulsion energy      4992.0143326977 Hartrees.
 IExCor= 4336 DFT=T Ex+Corr=M062X ExCW=0 ScaHFX=  0.540000
 ScaDFX=  1.000000  1.000000  1.000000  1.000000 ScalE2=  1.000000  1.000000
 IRadAn=      5 IRanWt=     -1 IRanGd=            0 ICorTp=0 IEmpDi=131
 NAtoms=   77 NActive=   77 NUniq=   77 SFac= 1.00D+00 NAtFMM=   60 NAOKFM=T Big=T
 Integral buffers will be    131072 words long.
 Raffenetti 2 integral format.
 Two-electron integral symmetry is turned on.
 R6Disp:  Grimme-D3 Dispersion energy=       -0.0108393552 Hartrees.
 Nuclear repulsion after empirical dispersion term =     4992.0034933425 Hartrees.
 Leave Link  301 at Thu Feb  7 15:56:54 2019, MaxMem=   104857600 cpu:               3.0 elap:               0.2
 (Enter /home/xinyan/g16/l302.exe)
 NPDir=0 NMtPBC=     1 NCelOv=     1 NCel=       1 NClECP=     1 NCelD=      1
         NCelK=      1 NCelE2=     1 NClLst=     1 CellRange=     0.0.
 One-electron integrals computed using PRISM.
 One-electron integral symmetry used in STVInt
 PrsmSu:  requested number of processors reduced to:  23 ShMem   1 Linda.
 NBasis=   626 RedAO= T EigKep=  4.45D-04  NBF=   626
 NBsUse=   626 1.00D-06 EigRej= -1.00D+00 NBFU=   626
 Precomputing XC quadrature grid using
 IXCGrd= 4 IRadAn=           5 IRanWt=          -1 IRanGd=           0 AccXCQ= 0.00D+00.
 Generated NRdTot=       0 NPtTot=           0 NUsed=           0 NTot=          32
 NSgBfM=   621   621   621   621   621 MxSgAt=    77 MxSgA2=    77.
 Leave Link  302 at Thu Feb  7 15:56:58 2019, MaxMem=   104857600 cpu:              81.9 elap:               3.6
 (Enter /home/xinyan/g16/l303.exe)
 DipDrv:  MaxL=1.
 Leave Link  303 at Thu Feb  7 15:56:58 2019, MaxMem=   104857600 cpu:               6.2 elap:               0.3
 (Enter /home/xinyan/g16/l401.exe)
 ExpMin= 1.17D-01 ExpMax= 2.19D+04 ExpMxC= 3.30D+03 IAcc=3 IRadAn=         5 AccDes= 0.00D+00
 Harris functional with IExCor= 1009 and IRadAn=       5 diagonalized for initial guess.
 HarFok:  IExCor= 1009 AccDes= 0.00D+00 IRadAn=         5 IDoV= 1 UseB2=F ITyADJ=14
 ICtDFT=  3500011 ScaDFX=  1.000000  1.000000  1.000000  1.000000
 FoFCou: FMM=F IPFlag=           0 FMFlag=      100000 FMFlg1=        2001
         NFxFlg=           0 DoJE=T BraDBF=F KetDBF=T FulRan=T
         wScrn=  0.000000 ICntrl=       500 IOpCl=  0 I1Cent=   200000004 NGrid=           0
         NMat0=    1 NMatS0=      1 NMatT0=    0 NMatD0=    1 NMtDS0=    0 NMtDT0=    0
 Petite list used in FoFCou.
 Harris En= -1990.52914498194    
 JPrj=0 DoOrth=F DoCkMO=F.
 Leave Link  401 at Thu Feb  7 15:57:02 2019, MaxMem=   104857600 cpu:             100.8 elap:               4.2
 (Enter /home/xinyan/g16/l502.exe)
 Integral symmetry usage will be decided dynamically.
 Closed shell SCF:
 Using DIIS extrapolation, IDIIS=  1040.
 NGot=   104857600 LenX=   104051656 LenY=   103659154
 Requested convergence on RMS density matrix=1.00D-08 within 128 cycles.
 Requested convergence on MAX density matrix=1.00D-06.
 Requested convergence on             energy=1.00D-06.
 No special actions if energy rises.
 Fock matrices will be formed incrementally for  20 cycles.
 Integral accuracy reduced to 1.0D-05 until final iterations.

 Cycle   1  Pass 0  IDiag  1:
 FoFJK:  IHMeth= 1 ICntrl=       0 DoSepK=F KAlg= 0 I1Cent=           0 FoldK=F
 IRaf= 990000000 NMat=       1 IRICut=       1 DoRegI=T DoRafI=F ISym2E= 0 IDoP0=0 IntGTp=1.
 FoFCou: FMM=T IPFlag=           0 FMFlag=      100000 FMFlg1=        2001
         NFxFlg=           0 DoJE=F BraDBF=F KetDBF=F FulRan=T
         wScrn=  0.000000 ICntrl=         0 IOpCl=  0 I1Cent=           0 NGrid=           0
         NMat0=    1 NMatS0=      1 NMatT0=    0 NMatD0=    1 NMtDS0=    0 NMtDT0=    0
 Symmetry not used in FoFCou.
 FMM levels:  10  Number of levels for PrismC:   9
 E= -1990.30136196306    
 DIIS: error= 2.20D-02 at cycle   1 NSaved=   1.
 NSaved= 1 IEnMin= 1 EnMin= -1990.30136196306     IErMin= 1 ErrMin= 2.20D-02
 ErrMax= 2.20D-02  0.00D+00 EMaxC= 1.00D-01 BMatC= 1.24D+00 BMatP= 1.24D+00
 IDIUse=3 WtCom= 7.80D-01 WtEn= 2.20D-01
 Coeff-Com:  0.100D+01
 Coeff-En:   0.100D+01
 Coeff:      0.100D+01
 Gap=     0.368 Goal=   None    Shift=    0.000
 GapD=    0.368 DampG=1.000 DampE=0.500 DampFc=0.5000 IDamp=-1.
 Damping current iteration by 5.00D-01
 RMSDP=3.43D-03 MaxDP=3.45D-01              OVMax= 1.95D-01

 Cycle   2  Pass 0  IDiag  1:
 RMSU=  1.71D-03    CP:  9.88D-01
 E= -1990.81364182194     Delta-E=       -0.512279858881 Rises=F Damp=T
 DIIS: error= 7.23D-03 at cycle   2 NSaved=   2.
 NSaved= 2 IEnMin= 2 EnMin= -1990.81364182194     IErMin= 2 ErrMin= 7.23D-03
 ErrMax= 7.23D-03  0.00D+00 EMaxC= 1.00D-01 BMatC= 9.26D-02 BMatP= 1.24D+00
 IDIUse=3 WtCom= 9.28D-01 WtEn= 7.23D-02
 Coeff-Com: -0.292D-01 0.103D+01
 Coeff-En:   0.000D+00 0.100D+01
 Coeff:     -0.271D-01 0.103D+01
 Gap=     0.262 Goal=   None    Shift=    0.000
 RMSDP=8.53D-04 MaxDP=7.80D-02 DE=-5.12D-01 OVMax= 1.17D-01

 Cycle   3  Pass 0  IDiag  1:
 RMSU=  8.43D-04    CP:  9.81D-01  9.48D-01
 E= -1991.31809219771     Delta-E=       -0.504450375762 Rises=F Damp=F
 DIIS: error= 6.29D-03 at cycle   3 NSaved=   3.
 NSaved= 3 IEnMin= 3 EnMin= -1991.31809219771     IErMin= 3 ErrMin= 6.29D-03
 ErrMax= 6.29D-03  0.00D+00 EMaxC= 1.00D-01 BMatC= 4.90D-02 BMatP= 9.26D-02
 IDIUse=3 WtCom= 9.37D-01 WtEn= 6.29D-02
 Coeff-Com: -0.713D-01 0.439D+00 0.632D+00
 Coeff-En:   0.000D+00 0.000D+00 0.100D+01
 Coeff:     -0.669D-01 0.412D+00 0.655D+00
 Gap=     0.248 Goal=   None    Shift=    0.000
 RMSDP=5.07D-04 MaxDP=3.78D-02 DE=-5.04D-01 OVMax= 5.93D-02

 Cycle   4  Pass 0  IDiag  1:
 RMSU=  3.37D-04    CP:  9.84D-01  1.05D+00  6.05D-01
 E= -1991.34828099018     Delta-E=       -0.030188792474 Rises=F Damp=F
 DIIS: error= 3.89D-03 at cycle   4 NSaved=   4.
 NSaved= 4 IEnMin= 4 EnMin= -1991.34828099018     IErMin= 4 ErrMin= 3.89D-03
 ErrMax= 3.89D-03  0.00D+00 EMaxC= 1.00D-01 BMatC= 1.18D-02 BMatP= 4.90D-02
 IDIUse=3 WtCom= 9.61D-01 WtEn= 3.89D-02
 Coeff-Com: -0.287D-01 0.920D-01 0.358D+00 0.579D+00
 Coeff-En:   0.000D+00 0.000D+00 0.204D+00 0.796D+00
 Coeff:     -0.275D-01 0.884D-01 0.352D+00 0.588D+00
 Gap=     0.229 Goal=   None    Shift=    0.000
 RMSDP=2.03D-04 MaxDP=1.46D-02 DE=-3.02D-02 OVMax= 2.77D-02

 Cycle   5  Pass 0  IDiag  1:
 RMSU=  8.59D-05    CP:  9.83D-01  1.04D+00  7.33D-01  5.62D-01
 E= -1991.35811872399     Delta-E=       -0.009837733814 Rises=F Damp=F
 DIIS: error= 1.00D-03 at cycle   5 NSaved=   5.
 NSaved= 5 IEnMin= 5 EnMin= -1991.35811872399     IErMin= 5 ErrMin= 1.00D-03
 ErrMax= 1.00D-03  0.00D+00 EMaxC= 1.00D-01 BMatC= 5.78D-04 BMatP= 1.18D-02
 IDIUse=3 WtCom= 9.90D-01 WtEn= 1.00D-02
 Coeff-Com: -0.940D-02 0.216D-01 0.133D+00 0.285D+00 0.570D+00
 Coeff-En:   0.000D+00 0.000D+00 0.000D+00 0.000D+00 0.100D+01
 Coeff:     -0.931D-02 0.213D-01 0.132D+00 0.282D+00 0.574D+00
 Gap=     0.230 Goal=   None    Shift=    0.000
 RMSDP=5.06D-05 MaxDP=3.68D-03 DE=-9.84D-03 OVMax= 8.70D-03

 Cycle   6  Pass 0  IDiag  1:
 RMSU=  2.70D-05    CP:  9.83D-01  1.04D+00  7.32D-01  6.35D-01  5.94D-01
 E= -1991.35862104399     Delta-E=       -0.000502319996 Rises=F Damp=F
 DIIS: error= 3.26D-04 at cycle   6 NSaved=   6.
 NSaved= 6 IEnMin= 6 EnMin= -1991.35862104399     IErMin= 6 ErrMin= 3.26D-04
 ErrMax= 3.26D-04  0.00D+00 EMaxC= 1.00D-01 BMatC= 5.73D-05 BMatP= 5.78D-04
 IDIUse=3 WtCom= 9.97D-01 WtEn= 3.26D-03
 Coeff-Com: -0.185D-02 0.198D-02 0.301D-01 0.828D-01 0.293D+00 0.594D+00
 Coeff-En:   0.000D+00 0.000D+00 0.000D+00 0.000D+00 0.000D+00 0.100D+01
 Coeff:     -0.185D-02 0.197D-02 0.300D-01 0.825D-01 0.292D+00 0.595D+00
 Gap=     0.230 Goal=   None    Shift=    0.000
 RMSDP=1.49D-05 MaxDP=8.85D-04 DE=-5.02D-04 OVMax= 2.36D-03

 Cycle   7  Pass 0  IDiag  1:
 RMSU=  9.34D-06    CP:  9.83D-01  1.04D+00  7.34D-01  6.35D-01  6.77D-01
                    CP:  6.77D-01
 E= -1991.35867496079     Delta-E=       -0.000053916796 Rises=F Damp=F
 DIIS: error= 5.26D-05 at cycle   7 NSaved=   7.
 NSaved= 7 IEnMin= 7 EnMin= -1991.35867496079     IErMin= 7 ErrMin= 5.26D-05
 ErrMax= 5.26D-05  0.00D+00 EMaxC= 1.00D-01 BMatC= 3.90D-06 BMatP= 5.73D-05
 IDIUse=1 WtCom= 1.00D+00 WtEn= 0.00D+00
 Coeff-Com:  0.164D-03-0.132D-02-0.125D-02 0.616D-02 0.719D-01 0.257D+00
 Coeff-Com:  0.667D+00
 Coeff:      0.164D-03-0.132D-02-0.125D-02 0.616D-02 0.719D-01 0.257D+00
 Coeff:      0.667D+00
 Gap=     0.230 Goal=   None    Shift=    0.000
 RMSDP=4.46D-06 MaxDP=2.41D-04 DE=-5.39D-05 OVMax= 5.13D-04

 Initial convergence to 1.0D-05 achieved.  Increase integral accuracy.
 Cycle   8  Pass 1  IDiag  1:
 E= -1991.35878093922     Delta-E=       -0.000105978434 Rises=F Damp=F
 DIIS: error= 2.22D-04 at cycle   1 NSaved=   1.
 NSaved= 1 IEnMin= 1 EnMin= -1991.35878093922     IErMin= 1 ErrMin= 2.22D-04
 ErrMax= 2.22D-04  0.00D+00 EMaxC= 1.00D-01 BMatC= 1.34D-05 BMatP= 1.34D-05
 IDIUse=3 WtCom= 9.98D-01 WtEn= 2.22D-03
 Coeff-Com:  0.100D+01
 Coeff-En:   0.100D+01
 Coeff:      0.100D+01
 Gap=     0.230 Goal=   None    Shift=    0.000
 RMSDP=4.46D-06 MaxDP=2.41D-04 DE=-1.06D-04 OVMax= 4.34D-04

 Cycle   9  Pass 1  IDiag  1:
 RMSU=  7.31D-05    CP:  1.00D+00
 E= -1991.35879289646     Delta-E=       -0.000011957238 Rises=F Damp=F
 DIIS: error= 2.13D-05 at cycle   2 NSaved=   2.
 NSaved= 2 IEnMin= 2 EnMin= -1991.35879289646     IErMin= 2 ErrMin= 2.13D-05
 ErrMax= 2.13D-05  0.00D+00 EMaxC= 1.00D-01 BMatC= 7.76D-07 BMatP= 1.34D-05
 IDIUse=1 WtCom= 1.00D+00 WtEn= 0.00D+00
 Coeff-Com:  0.670D-01 0.933D+00
 Coeff:      0.670D-01 0.933D+00
 Gap=     0.230 Goal=   None    Shift=    0.000
 RMSDP=3.83D-06 MaxDP=2.02D-04 DE=-1.20D-05 OVMax= 3.51D-04

 Cycle  10  Pass 1  IDiag  1:
 RMSU=  3.22D-06    CP:  1.00D+00  1.03D+00
 E= -1991.35879253828     Delta-E=        0.000000358175 Rises=F Damp=F
 DIIS: error= 3.54D-05 at cycle   3 NSaved=   3.
 NSaved= 3 IEnMin= 2 EnMin= -1991.35879289646     IErMin= 2 ErrMin= 2.13D-05
 ErrMax= 3.54D-05  0.00D+00 EMaxC= 1.00D-01 BMatC= 1.24D-06 BMatP= 7.76D-07
 IDIUse=1 WtCom= 1.00D+00 WtEn= 0.00D+00
 Coeff-Com: -0.147D-01 0.564D+00 0.451D+00
 Coeff:     -0.147D-01 0.564D+00 0.451D+00
 Gap=     0.230 Goal=   None    Shift=    0.000
 RMSDP=1.82D-06 MaxDP=1.21D-04 DE= 3.58D-07 OVMax= 2.16D-04

 Cycle  11  Pass 1  IDiag  1:
 RMSU=  6.22D-07    CP:  1.00D+00  1.03D+00  4.77D-01
 E= -1991.35879357050     Delta-E=       -0.000001032219 Rises=F Damp=F
 DIIS: error= 3.83D-06 at cycle   4 NSaved=   4.
 NSaved= 4 IEnMin= 4 EnMin= -1991.35879357050     IErMin= 4 ErrMin= 3.83D-06
 ErrMax= 3.83D-06  0.00D+00 EMaxC= 1.00D-01 BMatC= 1.05D-08 BMatP= 7.76D-07
 IDIUse=1 WtCom= 1.00D+00 WtEn= 0.00D+00
 Coeff-Com: -0.799D-02 0.254D+00 0.213D+00 0.541D+00
 Coeff:     -0.799D-02 0.254D+00 0.213D+00 0.541D+00
 Gap=     0.230 Goal=   None    Shift=    0.000
 RMSDP=2.14D-07 MaxDP=1.09D-05 DE=-1.03D-06 OVMax= 3.48D-05

 Cycle  12  Pass 1  IDiag  1:
 RMSU=  1.90D-07    CP:  1.00D+00  1.03D+00  4.95D-01  8.73D-01
 E= -1991.35879358021     Delta-E=       -0.000000009705 Rises=F Damp=F
 DIIS: error= 1.53D-06 at cycle   5 NSaved=   5.
 NSaved= 5 IEnMin= 5 EnMin= -1991.35879358021     IErMin= 5 ErrMin= 1.53D-06
 ErrMax= 1.53D-06  0.00D+00 EMaxC= 1.00D-01 BMatC= 9.84D-10 BMatP= 1.05D-08
 IDIUse=1 WtCom= 1.00D+00 WtEn= 0.00D+00
 Coeff-Com: -0.858D-03 0.126D-01 0.121D-01 0.219D+00 0.757D+00
 Coeff:     -0.858D-03 0.126D-01 0.121D-01 0.219D+00 0.757D+00
 Gap=     0.230 Goal=   None    Shift=    0.000
 RMSDP=8.62D-08 MaxDP=5.03D-06 DE=-9.71D-09 OVMax= 8.64D-06

 Cycle  13  Pass 1  IDiag  1:
 RMSU=  6.54D-08    CP:  1.00D+00  1.03D+00  4.96D-01  9.48D-01  8.54D-01
 E= -1991.35879358109     Delta-E=       -0.000000000881 Rises=F Damp=F
 DIIS: error= 4.91D-07 at cycle   6 NSaved=   6.
 NSaved= 6 IEnMin= 6 EnMin= -1991.35879358109     IErMin= 6 ErrMin= 4.91D-07
 ErrMax= 4.91D-07  0.00D+00 EMaxC= 1.00D-01 BMatC= 2.47D-10 BMatP= 9.84D-10
 IDIUse=1 WtCom= 1.00D+00 WtEn= 0.00D+00
 Coeff-Com:  0.788D-03-0.329D-01-0.274D-01 0.434D-01 0.416D+00 0.600D+00
 Coeff:      0.788D-03-0.329D-01-0.274D-01 0.434D-01 0.416D+00 0.600D+00
 Gap=     0.230 Goal=   None    Shift=    0.000
 RMSDP=3.54D-08 MaxDP=1.72D-06 DE=-8.81D-10 OVMax= 5.66D-06

 Cycle  14  Pass 1  IDiag  1:
 RMSU=  2.52D-08    CP:  1.00D+00  1.03D+00  4.97D-01  9.68D-01  9.37D-01
                    CP:  7.86D-01
 E= -1991.35879358137     Delta-E=       -0.000000000282 Rises=F Damp=F
 DIIS: error= 1.62D-07 at cycle   7 NSaved=   7.
 NSaved= 7 IEnMin= 7 EnMin= -1991.35879358137     IErMin= 7 ErrMin= 1.62D-07
 ErrMax= 1.62D-07  0.00D+00 EMaxC= 1.00D-01 BMatC= 1.66D-11 BMatP= 2.47D-10
 IDIUse=1 WtCom= 1.00D+00 WtEn= 0.00D+00
 Coeff-Com:  0.408D-03-0.149D-01-0.129D-01 0.123D-02 0.105D+00 0.258D+00
 Coeff-Com:  0.664D+00
 Coeff:      0.408D-03-0.149D-01-0.129D-01 0.123D-02 0.105D+00 0.258D+00
 Coeff:      0.664D+00
 Gap=     0.230 Goal=   None    Shift=    0.000
 RMSDP=9.57D-09 MaxDP=4.73D-07 DE=-2.82D-10 OVMax= 1.29D-06

 SCF Done:  E(RM062X) =  -1991.35879358     A.U. after   14 cycles
            NFock= 14  Conv=0.96D-08     -V/T= 2.0076
 KE= 1.976421882357D+03 PE=-1.463635852777D+04 EE= 5.676574358494D+03
 Leave Link  502 at Thu Feb  7 15:59:33 2019, MaxMem=   104857600 cpu:            3606.0 elap:             150.6
 (Enter /home/xinyan/g16/l601.exe)
 Copying SCF densities to generalized density rwf, IOpCl= 0 IROHF=0.

 **********************************************************************

            Population analysis using the SCF density.

 **********************************************************************

 Orbital symmetries:
       Occupied  (A) (A) (A) (A) (A) (A) (A) (A) (A) (A) (A) (A)
                 (A) (A) (A) (A) (A) (A) (A) (A) (A) (A) (A) (A)
                 (A) (A) (A) (A) (A) (A) (A) (A) (A) (A) (A) (A)
                 (A) (A) (A) (A) (A) (A) (A) (A) (A) (A) (A) (A)
                 (A) (A) (A) (A) (A) (A) (A) (A) (A) (A) (A) (A)
                 (A) (A) (A) (A) (A) (A) (A) (A) (A) (A) (A) (A)
                 (A) (A) (A) (A) (A) (A) (A) (A) (A) (A) (A) (A)
                 (A) (A) (A) (A) (A) (A) (A) (A) (A) (A) (A) (A)
                 (A) (A) (A) (A) (A) (A) (A) (A) (A) (A) (A) (A)
                 (A) (A) (A) (A) (A) (A) (A) (A) (A) (A) (A) (A)
                 (A) (A) (A) (A) (A) (A) (A) (A) (A) (A) (A) (A)
                 (A) (A) (A) (A) (A) (A) (A) (A)
       Virtual   (A) (A) (A) (A) (A) (A) (A) (A) (A) (A) (A) (A)
                 (A) (A) (A) (A) (A) (A) (A) (A) (A) (A) (A) (A)
                 (A) (A) (A) (A) (A) (A) (A) (A) (A) (A) (A) (A)
                 (A) (A) (A) (A) (A) (A) (A) (A) (A) (A) (A) (A)
                 (A) (A) (A) (A) (A) (A) (A) (A) (A) (A) (A) (A)
                 (A) (A) (A) (A) (A) (A) (A) (A) (A) (A) (A) (A)
                 (A) (A) (A) (A) (A) (A) (A) (A) (A) (A) (A) (A)
                 (A) (A) (A) (A) (A) (A) (A) (A) (A) (A) (A) (A)
                 (A) (A) (A) (A) (A) (A) (A) (A) (A) (A) (A) (A)
                 (A) (A) (A) (A) (A) (A) (A) (A) (A) (A) (A) (A)
                 (A) (A) (A) (A) (A) (A) (A) (A) (A) (A) (A) (A)
                 (A) (A) (A) (A) (A) (A) (A) (A) (A) (A) (A) (A)
                 (A) (A) (A) (A) (A) (A) (A) (A) (A) (A) (A) (A)
                 (A) (A) (A) (A) (A) (A) (A) (A) (A) (A) (A) (A)
                 (A) (A) (A) (A) (A) (A) (A) (A) (A) (A) (A) (A)
                 (A) (A) (A) (A) (A) (A) (A) (A) (A) (A) (A) (A)
                 (A) (A) (A) (A) (A) (A) (A) (A) (A) (A) (A) (A)
                 (A) (A) (A) (A) (A) (A) (A) (A) (A) (A) (A) (A)
                 (A) (A) (A) (A) (A) (A) (A) (A) (A) (A) (A) (A)
                 (A) (A) (A) (A) (A) (A) (A) (A) (A) (A) (A) (A)
                 (A) (A) (A) (A) (A) (A) (A) (A) (A) (A) (A) (A)
                 (A) (A) (A) (A) (A) (A) (A) (A) (A) (A) (A) (A)
                 (A) (A) (A) (A) (A) (A) (A) (A) (A) (A) (A) (A)
                 (A) (A) (A) (A) (A) (A) (A) (A) (A) (A) (A) (A)
                 (A) (A) (A) (A) (A) (A) (A) (A) (A) (A) (A) (A)
                 (A) (A) (A) (A) (A) (A) (A) (A) (A) (A) (A) (A)
                 (A) (A) (A) (A) (A) (A) (A) (A) (A) (A) (A) (A)
                 (A) (A) (A) (A) (A) (A) (A) (A) (A) (A) (A) (A)
                 (A) (A) (A) (A) (A) (A) (A) (A) (A) (A) (A) (A)
                 (A) (A) (A) (A) (A) (A) (A) (A) (A) (A) (A) (A)
                 (A) (A) (A) (A) (A) (A) (A) (A) (A) (A) (A) (A)
                 (A) (A) (A) (A) (A) (A) (A) (A) (A) (A) (A) (A)
                 (A) (A) (A) (A) (A) (A) (A) (A) (A) (A) (A) (A)
                 (A) (A) (A) (A) (A) (A) (A) (A) (A) (A) (A) (A)
                 (A) (A) (A) (A) (A) (A) (A) (A) (A) (A) (A) (A)
                 (A) (A) (A) (A) (A) (A) (A) (A) (A) (A) (A) (A)
                 (A) (A) (A) (A) (A) (A) (A) (A) (A) (A) (A) (A)
                 (A) (A) (A) (A) (A) (A) (A) (A) (A) (A) (A) (A)
                 (A) (A) (A) (A) (A) (A) (A) (A) (A) (A) (A) (A)
                 (A) (A) (A) (A) (A) (A) (A) (A) (A) (A) (A) (A)
                 (A) (A) (A) (A) (A) (A)
 The electronic state is 1-A.
 Alpha  occ. eigenvalues --  -90.14110 -19.61725 -19.61704 -19.58738 -19.56726
 Alpha  occ. eigenvalues --  -19.51347 -14.85147 -14.80452 -14.75602 -10.63406
 Alpha  occ. eigenvalues --  -10.62778 -10.62301 -10.62136 -10.60690 -10.59278
 Alpha  occ. eigenvalues --  -10.58572 -10.57972 -10.57911 -10.57117 -10.56883
 Alpha  occ. eigenvalues --  -10.56670 -10.55632 -10.55583 -10.55139 -10.54919
 Alpha  occ. eigenvalues --  -10.54813 -10.54750 -10.54695 -10.54547 -10.54374
 Alpha  occ. eigenvalues --  -10.54297 -10.54267 -10.53098 -10.51609 -10.51511
 Alpha  occ. eigenvalues --  -10.49754  -8.45088  -6.37304  -6.37282  -6.37125
 Alpha  occ. eigenvalues --   -1.21938  -1.13621  -1.13499  -1.10192  -1.09350
 Alpha  occ. eigenvalues --   -1.05903  -1.01658  -0.99371  -0.95712  -0.94973
 Alpha  occ. eigenvalues --   -0.93472  -0.90274  -0.88750  -0.85884  -0.85821
 Alpha  occ. eigenvalues --   -0.84812  -0.84679  -0.84275  -0.83044  -0.82650
 Alpha  occ. eigenvalues --   -0.76653  -0.76325  -0.75833  -0.74392  -0.72746
 Alpha  occ. eigenvalues --   -0.71606  -0.68328  -0.68259  -0.67933  -0.67174
 Alpha  occ. eigenvalues --   -0.66760  -0.65214  -0.64871  -0.63520  -0.60576
 Alpha  occ. eigenvalues --   -0.60403  -0.59794  -0.58925  -0.57814  -0.57573
 Alpha  occ. eigenvalues --   -0.57152  -0.56429  -0.55747  -0.55164  -0.54179
 Alpha  occ. eigenvalues --   -0.53503  -0.52644  -0.52420  -0.52388  -0.51898
 Alpha  occ. eigenvalues --   -0.51538  -0.51055  -0.50872  -0.49857  -0.49587
 Alpha  occ. eigenvalues --   -0.49158  -0.48816  -0.48203  -0.48118  -0.48059
 Alpha  occ. eigenvalues --   -0.47644  -0.47444  -0.46899  -0.46458  -0.46097
 Alpha  occ. eigenvalues --   -0.44898  -0.44707  -0.44115  -0.43881  -0.43253
 Alpha  occ. eigenvalues --   -0.42476  -0.42102  -0.41467  -0.41381  -0.41154
 Alpha  occ. eigenvalues --   -0.40887  -0.40460  -0.40006  -0.39836  -0.39399
 Alpha  occ. eigenvalues --   -0.39257  -0.39053  -0.38456  -0.37913  -0.37583
 Alpha  occ. eigenvalues --   -0.37377  -0.36731  -0.36574  -0.35703  -0.34887
 Alpha  occ. eigenvalues --   -0.34371  -0.33920  -0.31701  -0.31034  -0.29752
 Alpha  occ. eigenvalues --   -0.28886  -0.28589  -0.27614  -0.24944  -0.24485
 Alpha virt. eigenvalues --   -0.01483   0.00438   0.03578   0.03785   0.10160
 Alpha virt. eigenvalues --    0.11035   0.11638   0.12141   0.13202   0.13543
 Alpha virt. eigenvalues --    0.14198   0.14654   0.14777   0.15273   0.15600
 Alpha virt. eigenvalues --    0.16056   0.16869   0.16967   0.17230   0.17612
 Alpha virt. eigenvalues --    0.18029   0.18341   0.18532   0.18850   0.18907
 Alpha virt. eigenvalues --    0.19311   0.19666   0.19929   0.20126   0.20315
 Alpha virt. eigenvalues --    0.20640   0.21002   0.21068   0.21625   0.21700
 Alpha virt. eigenvalues --    0.22235   0.22545   0.22894   0.23489   0.23611
 Alpha virt. eigenvalues --    0.23872   0.24202   0.24476   0.24751   0.25050
 Alpha virt. eigenvalues --    0.25265   0.25603   0.26067   0.26422   0.26836
 Alpha virt. eigenvalues --    0.27122   0.27792   0.27868   0.28623   0.29025
 Alpha virt. eigenvalues --    0.29391   0.29696   0.29962   0.30799   0.30915
 Alpha virt. eigenvalues --    0.31391   0.31760   0.32398   0.32810   0.33156
 Alpha virt. eigenvalues --    0.33714   0.34563   0.35163   0.35534   0.35779
 Alpha virt. eigenvalues --    0.36411   0.37249   0.37779   0.38053   0.38874
 Alpha virt. eigenvalues --    0.39870   0.40303   0.40827   0.42840   0.43272
 Alpha virt. eigenvalues --    0.44521   0.44871   0.46892   0.48173   0.48858
 Alpha virt. eigenvalues --    0.49868   0.51251   0.52740   0.53419   0.54963
 Alpha virt. eigenvalues --    0.55171   0.55369   0.55991   0.56520   0.56904
 Alpha virt. eigenvalues --    0.57532   0.58238   0.58526   0.58698   0.59344
 Alpha virt. eigenvalues --    0.59512   0.59967   0.60330   0.60471   0.60563
 Alpha virt. eigenvalues --    0.61228   0.61423   0.62420   0.62666   0.62878
 Alpha virt. eigenvalues --    0.63819   0.64069   0.64678   0.65162   0.65526
 Alpha virt. eigenvalues --    0.66151   0.66785   0.66937   0.67448   0.67875
 Alpha virt. eigenvalues --    0.68467   0.69009   0.69318   0.69923   0.70669
 Alpha virt. eigenvalues --    0.71020   0.71439   0.71711   0.73056   0.73570
 Alpha virt. eigenvalues --    0.73620   0.74138   0.74713   0.74944   0.75698
 Alpha virt. eigenvalues --    0.76717   0.77367   0.77825   0.78615   0.78972
 Alpha virt. eigenvalues --    0.79467   0.79740   0.80229   0.81103   0.81370
 Alpha virt. eigenvalues --    0.81713   0.82088   0.82782   0.83659   0.84430
 Alpha virt. eigenvalues --    0.84934   0.85458   0.85708   0.86259   0.87242
 Alpha virt. eigenvalues --    0.87672   0.88441   0.89036   0.89471   0.89600
 Alpha virt. eigenvalues --    0.89801   0.90180   0.90558   0.90947   0.91249
 Alpha virt. eigenvalues --    0.91762   0.92300   0.92854   0.93042   0.93271
 Alpha virt. eigenvalues --    0.93659   0.94353   0.94820   0.95092   0.95477
 Alpha virt. eigenvalues --    0.95892   0.96118   0.96537   0.96658   0.97101
 Alpha virt. eigenvalues --    0.97314   0.97993   0.98070   0.98400   0.98441
 Alpha virt. eigenvalues --    0.99154   0.99772   0.99800   1.00511   1.00747
 Alpha virt. eigenvalues --    1.01363   1.01905   1.02143   1.02891   1.03039
 Alpha virt. eigenvalues --    1.03156   1.04253   1.04741   1.04823   1.05537
 Alpha virt. eigenvalues --    1.05862   1.07014   1.07720   1.08249   1.08898
 Alpha virt. eigenvalues --    1.10333   1.10660   1.11641   1.11862   1.11977
 Alpha virt. eigenvalues --    1.13296   1.13639   1.14504   1.15149   1.15516
 Alpha virt. eigenvalues --    1.16800   1.17706   1.18252   1.18620   1.18926
 Alpha virt. eigenvalues --    1.19921   1.21115   1.21327   1.21749   1.22089
 Alpha virt. eigenvalues --    1.22918   1.23767   1.24196   1.24330   1.25665
 Alpha virt. eigenvalues --    1.25953   1.28181   1.29318   1.29436   1.30604
 Alpha virt. eigenvalues --    1.31342   1.31668   1.32020   1.32386   1.33668
 Alpha virt. eigenvalues --    1.34234   1.34569   1.35038   1.36156   1.36983
 Alpha virt. eigenvalues --    1.37517   1.38414   1.39323   1.40994   1.41448
 Alpha virt. eigenvalues --    1.41704   1.42169   1.44058   1.44766   1.46035
 Alpha virt. eigenvalues --    1.47414   1.47897   1.48419   1.49181   1.49740
 Alpha virt. eigenvalues --    1.51023   1.51992   1.52488   1.52820   1.54563
 Alpha virt. eigenvalues --    1.54732   1.55096   1.55967   1.57080   1.57219
 Alpha virt. eigenvalues --    1.57463   1.58560   1.60645   1.61072   1.61451
 Alpha virt. eigenvalues --    1.61982   1.62835   1.63867   1.65793   1.67306
 Alpha virt. eigenvalues --    1.69046   1.69675   1.70415   1.72273   1.72863
 Alpha virt. eigenvalues --    1.74387   1.74747   1.75773   1.77250   1.78000
 Alpha virt. eigenvalues --    1.78556   1.79313   1.80416   1.80816   1.81759
 Alpha virt. eigenvalues --    1.84337   1.84648   1.85179   1.85776   1.85970
 Alpha virt. eigenvalues --    1.86322   1.86909   1.87598   1.88029   1.89075
 Alpha virt. eigenvalues --    1.90027   1.90073   1.90488   1.91112   1.91846
 Alpha virt. eigenvalues --    1.92751   1.93902   1.94164   1.94619   1.94694
 Alpha virt. eigenvalues --    1.95438   1.95786   1.96294   1.97012   1.97777
 Alpha virt. eigenvalues --    1.98527   1.99124   1.99180   2.00018   2.00945
 Alpha virt. eigenvalues --    2.01847   2.02292   2.02351   2.02755   2.03992
 Alpha virt. eigenvalues --    2.04374   2.06230   2.06383   2.06929   2.07463
 Alpha virt. eigenvalues --    2.07663   2.08412   2.08821   2.09218   2.09588
 Alpha virt. eigenvalues --    2.09911   2.10623   2.11855   2.11886   2.12833
 Alpha virt. eigenvalues --    2.12920   2.14128   2.14531   2.15220   2.16048
 Alpha virt. eigenvalues --    2.16315   2.16757   2.17267   2.18638   2.19221
 Alpha virt. eigenvalues --    2.20012   2.20427   2.20690   2.21587   2.22363
 Alpha virt. eigenvalues --    2.23167   2.23328   2.23609   2.23734   2.24605
 Alpha virt. eigenvalues --    2.25513   2.26073   2.26505   2.27481   2.28546
 Alpha virt. eigenvalues --    2.28848   2.30282   2.30827   2.30993   2.31988
 Alpha virt. eigenvalues --    2.32407   2.34090   2.34878   2.35218   2.35646
 Alpha virt. eigenvalues --    2.36086   2.37441   2.37787   2.38610   2.38760
 Alpha virt. eigenvalues --    2.39132   2.40310   2.40979   2.41659   2.42771
 Alpha virt. eigenvalues --    2.43313   2.44559   2.45366   2.46024   2.46994
 Alpha virt. eigenvalues --    2.49655   2.50764   2.51809   2.52249   2.53160
 Alpha virt. eigenvalues --    2.54228   2.54654   2.56343   2.57133   2.59968
 Alpha virt. eigenvalues --    2.60911   2.61846   2.62367   2.63067   2.64088
 Alpha virt. eigenvalues --    2.64700   2.64914   2.65817   2.67295   2.68353
 Alpha virt. eigenvalues --    2.68868   2.69658   2.70667   2.71708   2.72779
 Alpha virt. eigenvalues --    2.73705   2.74436   2.76309   2.76769   2.77406
 Alpha virt. eigenvalues --    2.79535   2.80223   2.80773   2.80816   2.81569
 Alpha virt. eigenvalues --    2.83442   2.85503   2.86250   2.87250   2.88381
 Alpha virt. eigenvalues --    2.89155   2.90970   2.92609   2.93916   2.97003
 Alpha virt. eigenvalues --    2.99727   3.00360   3.03140   3.05215   3.10516
 Alpha virt. eigenvalues --    3.14773   3.16345   3.23909   3.41338   3.42877
 Alpha virt. eigenvalues --    3.96970   4.02238   4.05016   4.09521   4.11036
 Alpha virt. eigenvalues --    4.15863   4.17338   4.18156   4.18719   4.19733
 Alpha virt. eigenvalues --    4.21303   4.23333   4.24559   4.26691   4.27427
 Alpha virt. eigenvalues --    4.29834   4.32789   4.33304   4.34818   4.35177
 Alpha virt. eigenvalues --    4.39844   4.40907   4.41901   4.43953   4.47863
 Alpha virt. eigenvalues --    4.50467   4.55857   4.58181   4.59192   4.61806
 Alpha virt. eigenvalues --    4.64072   4.66009   4.73829   4.75496   4.77023
 Alpha virt. eigenvalues --    4.80373
          Condensed to atoms (all electrons):
 Mulliken charges:
               1
     1  C   -0.306171
     2  C   -0.306990
     3  C   -0.309714
     4  C   -0.059666
     5  C    0.057166
     6  C   -0.311843
     7  H    0.173800
     8  H    0.162766
     9  H    0.165298
    10  H    0.150967
    11  H    0.163078
    12  H    0.208652
    13  H    0.172721
    14  H    0.193120
    15  H    0.163523
    16  H    0.153983
    17  N   -0.431113
    18  C    0.068407
    19  C    0.063718
    20  C   -0.203300
    21  H    0.206767
    22  C   -0.208888
    23  H    0.245694
    24  C    0.447600
    25  H    0.191441
    26  H    0.211674
    27  N   -0.527271
    28  C   -0.172990
    29  H    0.169817
    30  H    0.232773
    31  C   -0.154334
    32  H    0.167097
    33  H    0.202847
    34  N   -0.816805
    35  S    1.253902
    36  O   -0.612253
    37  O   -0.608158
    38  C    0.087652
    39  C   -0.181022
    40  C   -0.189285
    41  C   -0.170772
    42  C   -0.163671
    43  C   -0.212195
    44  H    0.207033
    45  H    0.140861
    46  H    0.154785
    47  H    0.158515
    48  H    0.152459
    49  O   -0.548892
    50  H    0.449384
    51  C    0.726659
    52  O   -0.723721
    53  O   -0.718135
    54  H    0.445531
    55  C   -0.338307
    56  H    0.149665
    57  H    0.150200
    58  C   -0.093076
    59  H    0.140843
    60  H    0.147207
    61  C   -0.662992
    62  H    0.272090
    63  H    0.196270
    64  H    0.217411
    65  C   -0.294765
    66  H    0.139545
    67  H    0.146858
    68  C   -0.474468
    69  H    0.149267
    70  H    0.155430
    71  H    0.143825
    72  C   -0.331784
    73  H    0.187500
    74  H    0.163287
    75  C   -0.343639
    76  H    0.195707
    77  H    0.171425
 Sum of Mulliken charges =  -0.00000
 Mulliken charges with hydrogens summed into heavy atoms:
               1
     1  C    0.007875
     2  C    0.021073
     3  C    0.018069
     4  C    0.148986
     5  C    0.229887
     6  C    0.044800
    17  N   -0.431113
    18  C    0.275173
    19  C    0.309411
    20  C   -0.011859
    22  C    0.002786
    24  C    0.447600
    27  N   -0.527271
    28  C    0.229600
    31  C    0.215610
    34  N   -0.367421
    35  S    1.253902
    36  O   -0.612253
    37  O   -0.608158
    38  C    0.087652
    39  C    0.026011
    40  C   -0.048424
    41  C   -0.015987
    42  C   -0.005156
    43  C   -0.059735
    49  O   -0.548892
    51  C    0.726659
    52  O   -0.723721
    53  O   -0.272604
    55  C   -0.038442
    58  C    0.194975
    61  C    0.022779
    65  C   -0.008362
    68  C   -0.025947
    72  C    0.019003
    75  C    0.023493
 Electronic spatial extent (au):  <R**2>=          14329.9731
 Charge=             -0.0000 electrons
 Dipole moment (field-independent basis, Debye):
    X=             -2.3470    Y=             -1.8438    Z=             -6.4317  Tot=              7.0905
 Quadrupole moment (field-independent basis, Debye-Ang):
   XX=           -205.2873   YY=           -223.1913   ZZ=           -219.7454
   XY=            -12.1764   XZ=             -5.3877   YZ=             10.0153
 Traceless Quadrupole moment (field-independent basis, Debye-Ang):
   XX=             10.7873   YY=             -7.1166   ZZ=             -3.6708
   XY=            -12.1764   XZ=             -5.3877   YZ=             10.0153
 Octapole moment (field-independent basis, Debye-Ang**2):
  XXX=             16.6537  YYY=            -49.7522  ZZZ=             10.0526  XYY=             10.9458
  XXY=            -23.2146  XXZ=            -37.5912  XZZ=            -24.7846  YZZ=             12.7791
  YYZ=             17.6171  XYZ=            -19.8315
 Hexadecapole moment (field-independent basis, Debye-Ang**3):
 XXXX=          -9876.7451 YYYY=          -5390.8437 ZZZZ=          -3546.4889 XXXY=           -203.6444
 XXXZ=            -10.2127 YYYX=            -61.6227 YYYZ=             58.1679 ZZZX=           -108.8999
 ZZZY=             -8.1223 XXYY=          -2555.1248 XXZZ=          -2319.6429 YYZZ=          -1589.4817
 XXYZ=             48.4614 YYXZ=             52.8431 ZZXY=            -49.4867
 N-N= 4.992003493343D+03 E-N=-1.463635856636D+04  KE= 1.976421882357D+03
 No NMR shielding tensors so no spin-rotation constants.
 Leave Link  601 at Thu Feb  7 15:59:34 2019, MaxMem=   104857600 cpu:              28.8 elap:               1.3
 (Enter /home/xinyan/g16/l701.exe)
 ... and contract with generalized density number  0.
 Compute integral first derivatives.
 R6Disp: Adding Grimme-D3 dispersion energy 1st derivatives to the gradient.
 Leave Link  701 at Thu Feb  7 15:59:35 2019, MaxMem=   104857600 cpu:              14.4 elap:               0.6
 (Enter /home/xinyan/g16/l702.exe)
 L702 exits ... SP integral derivatives will be done elsewhere.
 Leave Link  702 at Thu Feb  7 15:59:35 2019, MaxMem=   104857600 cpu:               1.1 elap:               0.1
 (Enter /home/xinyan/g16/l703.exe)
 Integral derivatives from FoFJK, PRISM(SPDF).
 Compute integral first derivatives, UseDBF=F ICtDFT=           0.
 Calling FoFJK, ICntrl=      2127 FMM=T ISym2X=0 I1Cent= 0 IOpClX= 0 NMat=1 NMatS=1 NMatT=0.
 FoFJK:  IHMeth= 1 ICntrl=    2127 DoSepK=F KAlg= 0 I1Cent=           0 FoldK=F
 IRaf=         0 NMat=       1 IRICut=       1 DoRegI=T DoRafI=F ISym2E= 0 IDoP0=0 IntGTp=1.
 FoFCou: FMM=T IPFlag=           0 FMFlag=      100000 FMFlg1=        2001
         NFxFlg=           0 DoJE=F BraDBF=F KetDBF=F FulRan=T
         wScrn=  0.000000 ICntrl=      2127 IOpCl=  0 I1Cent=           0 NGrid=           0
         NMat0=    1 NMatS0=      1 NMatT0=    0 NMatD0=    1 NMtDS0=    0 NMtDT0=    0
 Symmetry not used in FoFCou.
 FMM levels:  10  Number of levels for PrismC:   9
 Leave Link  703 at Thu Feb  7 16:00:09 2019, MaxMem=   104857600 cpu:             823.1 elap:              34.4
 (Enter /home/xinyan/g16/l716.exe)
 Dipole        =-9.23389482D-01-7.25422714D-01-2.53043580D+00
 ***** Axes restored to original set *****
 -------------------------------------------------------------------
 Center     Atomic                   Forces (Hartrees/Bohr)
 Number     Number              X              Y              Z
 -------------------------------------------------------------------
      1        6          -0.000003459   -0.000024738   -0.000016141
      2        6           0.000034062   -0.000009154    0.000024233
      3        6           0.000003067    0.000011826   -0.000008424
      4        6           0.000008148    0.000022581   -0.000001864
      5        6           0.000007962    0.000007820   -0.000005917
      6        6          -0.000022406    0.000010357    0.000013525
      7        1           0.000012232   -0.000000658   -0.000016618
      8        1           0.000000186    0.000001141   -0.000028696
      9        1           0.000006029   -0.000005722   -0.000022287
     10        1          -0.000001344    0.000025127   -0.000033148
     11        1          -0.000005819   -0.000007870   -0.000015931
     12        1          -0.000006374   -0.000030293    0.000006972
     13        1          -0.000008565    0.000004396   -0.000010185
     14        1          -0.000011152   -0.000022141    0.000008773
     15        1          -0.000006159    0.000004780   -0.000006657
     16        1           0.000007538   -0.000006898   -0.000008128
     17        7           0.000008642    0.000027352   -0.000009872
     18        6           0.000014004   -0.000024584   -0.000015637
     19        6           0.000010468    0.000014119    0.000005748
     20        6          -0.000007776   -0.000011575   -0.000025273
     21        1           0.000008897   -0.000006604   -0.000002010
     22        6          -0.000014412   -0.000001076    0.000025036
     23        1           0.000008153    0.000012147    0.000013947
     24        6          -0.000002798   -0.000009520    0.000008440
     25        1           0.000005900   -0.000000277   -0.000006715
     26        1           0.000017207    0.000021814    0.000023662
     27        7           0.000039201    0.000011383    0.000026492
     28        6           0.000006012    0.000010667    0.000000416
     29        1           0.000009958    0.000033643    0.000014376
     30        1           0.000007695    0.000030699    0.000004339
     31        6           0.000001072   -0.000006717   -0.000027492
     32        1           0.000004884   -0.000009786   -0.000002922
     33        1           0.000017120    0.000013544   -0.000016118
     34        7          -0.000023474   -0.000014279   -0.000028006
     35       16          -0.000017820   -0.000021996   -0.000032516
     36        8           0.000016353    0.000012623   -0.000015194
     37        8          -0.000005725    0.000013738    0.000001124
     38        6           0.000061139    0.000015299    0.000024734
     39        6           0.000121813   -0.000045988   -0.000019573
     40        6           0.000005954    0.000011350   -0.000028270
     41        6           0.000017129   -0.000013139   -0.000034836
     42        6           0.000039409   -0.000012112    0.000041634
     43        6           0.000026800   -0.000009259   -0.000035957
     44        1          -0.000147915    0.000081755    0.000025256
     45        1          -0.000035420    0.000034312    0.000054912
     46        1          -0.000025195    0.000014459    0.000034451
     47        1          -0.000114193    0.000027142    0.000070553
     48        1          -0.000053221    0.000009702    0.000125638
     49        8           0.000048828    0.000022914   -0.000005877
     50        1          -0.000024606   -0.000031901    0.000035195
     51        6          -0.000070888   -0.000014132   -0.000002949
     52        8           0.000039940    0.000059357    0.000031332
     53        8          -0.000079162   -0.000106234    0.000003680
     54        1           0.000098934    0.000125103    0.000003563
     55        6          -0.000094185    0.000067287    0.000001728
     56        1          -0.000008412   -0.000030039   -0.000019843
     57        1           0.000021483   -0.000057254   -0.000030835
     58        6          -0.000003823   -0.000004924   -0.000032937
     59        1           0.000001002    0.000029991    0.000036086
     60        1          -0.000007193   -0.000012766    0.000002649
     61        6          -0.000023259    0.000026088    0.000021971
     62        1          -0.000031801   -0.000029236   -0.000013336
     63        1          -0.000013327   -0.000002761   -0.000005425
     64        1          -0.000015820    0.000009387    0.000003081
     65        6           0.000274871   -0.000174666    0.000169616
     66        1          -0.000037567   -0.000152634   -0.000121327
     67        1          -0.000264407    0.000280640    0.000011215
     68        6           0.000465548   -0.000008067    0.000389750
     69        1          -0.000039744   -0.000035832   -0.000103860
     70        1          -0.000019843   -0.000442213   -0.000363077
     71        1          -0.000273063    0.000216853   -0.000048323
     72        6           0.000002091    0.000026867   -0.000012356
     73        1           0.000005992    0.000026941   -0.000002203
     74        1           0.000009540    0.000008284    0.000018024
     75        6          -0.000004277   -0.000004593   -0.000005923
     76        1           0.000020420    0.000019410   -0.000027313
     77        1           0.000008924   -0.000001259   -0.000012174
 -------------------------------------------------------------------
 Cartesian Forces:  Max     0.000465548 RMS     0.000077301
 Z-matrix is all fixed cartesians, so copy forces.
 Leave Link  716 at Thu Feb  7 16:00:09 2019, MaxMem=   104857600 cpu:               2.3 elap:               0.1
 (Enter /home/xinyan/g16/l103.exe)

 GradGradGradGradGradGradGradGradGradGradGradGradGradGradGradGradGradGrad
 Berny optimization.
 Search for a local minimum.
 Step number   1 out of a maximum of    2
 All quantities printed in internal units (Hartrees-Bohrs-Radians)
 Second derivative matrix not updated -- first step.
 ITU=  0
     Eigenvalues ---   -0.00000   0.00000   0.00000   0.00000   0.00000
     Eigenvalues ---    0.00000   0.00007   0.00013   0.00018   0.00021
     Eigenvalues ---    0.00037   0.00038   0.00084   0.00096   0.00115
     Eigenvalues ---    0.00136   0.00141   0.00203   0.00234   0.00294
     Eigenvalues ---    0.00388   0.00406   0.00449   0.00497   0.00591
     Eigenvalues ---    0.00603   0.00628   0.00688   0.00708   0.00847
     Eigenvalues ---    0.00962   0.01127   0.01165   0.01461   0.01657
     Eigenvalues ---    0.01681   0.01888   0.01948   0.02043   0.02159
     Eigenvalues ---    0.02295   0.02305   0.02444   0.02538   0.02873
     Eigenvalues ---    0.02961   0.03064   0.03101   0.03222   0.03448
     Eigenvalues ---    0.03557   0.03716   0.03910   0.04202   0.04326
     Eigenvalues ---    0.04365   0.04810   0.04842   0.04880   0.04925
     Eigenvalues ---    0.05024   0.05070   0.05106   0.05112   0.05169
     Eigenvalues ---    0.05189   0.05267   0.05374   0.05472   0.05610
     Eigenvalues ---    0.05644   0.05664   0.05703   0.05743   0.05789
     Eigenvalues ---    0.06015   0.06164   0.06263   0.06498   0.06568
     Eigenvalues ---    0.06837   0.06853   0.06973   0.07030   0.07070
     Eigenvalues ---    0.07161   0.07251   0.07268   0.07330   0.07381
     Eigenvalues ---    0.07650   0.07788   0.07860   0.07962   0.08082
     Eigenvalues ---    0.08465   0.08588   0.08789   0.09024   0.09727
     Eigenvalues ---    0.09768   0.10162   0.10462   0.11258   0.11470
     Eigenvalues ---    0.11835   0.12120   0.12602   0.12859   0.12911
     Eigenvalues ---    0.12931   0.13029   0.13352   0.13659   0.13936
     Eigenvalues ---    0.14128   0.14442   0.14643   0.15603   0.15754
     Eigenvalues ---    0.16046   0.16100   0.16894   0.16927   0.16996
     Eigenvalues ---    0.17240   0.17308   0.17751   0.17878   0.19559
     Eigenvalues ---    0.19673   0.20340   0.20614   0.21566   0.21698
     Eigenvalues ---    0.23052   0.23373   0.23785   0.24791   0.26400
     Eigenvalues ---    0.27464   0.28628   0.29579   0.30067   0.30629
     Eigenvalues ---    0.31429   0.32263   0.34029   0.34793   0.36315
     Eigenvalues ---    0.36734   0.39460   0.39961   0.41235   0.43082
     Eigenvalues ---    0.43572   0.44551   0.48139   0.49035   0.50160
     Eigenvalues ---    0.52871   0.56794   0.57635   0.60206   0.64938
     Eigenvalues ---    0.65364   0.66335   0.67439   0.68253   0.68784
     Eigenvalues ---    0.70502   0.77669   0.78205   0.78309   0.81090
     Eigenvalues ---    0.82967   0.83318   0.85453   0.86806   0.87254
     Eigenvalues ---    0.87798   0.88678   0.90544   0.91309   0.93968
     Eigenvalues ---    0.94443   0.94774   0.95012   0.95593   0.96315
     Eigenvalues ---    0.97818   0.97890   0.99582   1.00317   1.00592
     Eigenvalues ---    1.00750   1.03849   1.04271   1.04642   1.06104
     Eigenvalues ---    1.06279   1.06784   1.07123   1.08849   1.09065
     Eigenvalues ---    1.12813   1.15586   1.15817   1.16696   1.19897
     Eigenvalues ---    1.21233   1.24203   1.26017   1.27704   1.37191
     Eigenvalues ---    1.47304   1.53584   1.56495   1.58306   1.58839
     Eigenvalues ---    1.59616   1.67252   1.73035   1.84110   2.33708
 Eigenvalue     1 is  -2.22D-16 should be greater than     0.000000 Eigenvector:
                          Y45       Y46       Y40       Y41       Y69
   1                    0.13561   0.13561   0.13561   0.13561   0.13561
                          Y44       Y66       Y39       Y42       Y47
   1                    0.13561   0.13561   0.13561   0.13561   0.13561
 Eigenvalue     2 is   5.40D-08 Eigenvector:
                          X45       X46       X40       Y46       X41
   1                    0.16760   0.15244   0.14607  -0.13978   0.13766
                          Y73       X44       Y77       X52       Y74
   1                    0.13671   0.13431   0.13285   0.13107   0.13072
 Eigenvalue     3 is   6.50D-08 Eigenvector:
                          Y46       X54       Z47       X53       Y47
   1                    0.21041  -0.20129  -0.18331  -0.18125   0.17692
                          Z46       Y41       Z42       Y42       Z41
   1                   -0.16928   0.16822  -0.15643   0.14953  -0.14871
 Eigenvalue     4 is   1.54D-07 Eigenvector:
                          Z77       Z76       Z57       Z54       Z53
   1                    0.18272   0.17931  -0.17054  -0.17026  -0.16749
                          Z71       Z75       Y64       Z33       Z52
   1                   -0.16432   0.15846  -0.15350   0.14811  -0.14511
 Eigenvalue     5 is   2.49D-07 Eigenvector:
                          Z47       Y46       Y64       Y9        Y47
   1                    0.17964   0.17678   0.16047  -0.16029   0.14974
                          Z42       Y7        Z48       Y73       Y62
   1                    0.14441  -0.14216   0.14067   0.13948   0.13869
 Eigenvalue     6 is   4.49D-07 Eigenvector:
                          Y69       Z54       Y48       Y59       Y71
   1                    0.26086  -0.24469  -0.23212  -0.22979   0.21009
                          Y45       Z53       Y68       Y66       Z70
   1                    0.18783  -0.18066   0.18055   0.17984   0.17943
 Eigenvalue     7 is   6.86D-05 Eigenvector:
                          X69       X45       X46       X70       Z70
   1                    0.27472  -0.24467  -0.22941   0.21760   0.21223
                          X67       X68       Z69       X40       X41
   1                    0.21066   0.20725   0.20585  -0.18778  -0.17950
 Quadratic step=1.834D+00 exceeds max=3.000D-01 adjusted using Lamda=-5.834D-04.
 Angle between NR and scaled steps=  14.03 degrees.
 Angle between quadratic step and forces=  78.77 degrees.
 Linear search not attempted -- first point.
 B after Tr=    -0.000974    0.001063    0.001485
         Rot=    1.000000   -0.000125    0.000061   -0.000062 Ang=  -0.02 deg.
 Variable       Old X    -DE/DX   Delta X   Delta X   Delta X     New X
                                 (Linear)    (Quad)   (Total)
    X1       -9.25427  -0.00000   0.00000   0.00041  -0.00051  -9.25478
    Y1        0.44524  -0.00002   0.00000  -0.00768  -0.00753   0.43770
    Z1       -0.85304  -0.00002   0.00000  -0.02211  -0.02165  -0.87469
    X2       -9.58220   0.00003   0.00000   0.00821   0.00778  -9.57442
    Y2       -1.94443  -0.00001   0.00000  -0.00963  -0.00913  -1.95356
    Z2       -2.45290   0.00002   0.00000  -0.02076  -0.02093  -2.47384
    X3       -7.05097   0.00000   0.00000   0.01260   0.01241  -7.03856
    Y3       -2.78011   0.00001   0.00000  -0.00819  -0.00709  -2.78720
    Z3       -3.59086  -0.00001   0.00000  -0.01195  -0.01202  -3.60288
    X4       -5.18588   0.00001   0.00000   0.00643   0.00604  -5.17984
    Y4       -3.24453   0.00002   0.00000  -0.00372  -0.00293  -3.24746
    Z4       -1.44568  -0.00000   0.00000  -0.00564  -0.00560  -1.45128
    X5       -4.76852   0.00001   0.00000  -0.00113  -0.00202  -4.77053
    Y5       -0.80415   0.00001   0.00000  -0.00166  -0.00121  -0.80537
    Z5        0.12313  -0.00001   0.00000  -0.00701  -0.00631   0.11683
    X6       -7.29168  -0.00002   0.00000  -0.00567  -0.00681  -7.29849
    Y6        0.07393   0.00001   0.00000  -0.00338  -0.00352   0.07040
    Z6        1.24265   0.00001   0.00000  -0.01561  -0.01500   1.22764
    X7       -7.26624   0.00001   0.00000   0.01801   0.01817  -7.24807
    Y7       -4.48999  -0.00000   0.00000  -0.00961  -0.00826  -4.49825
    Z7       -4.73713  -0.00002   0.00000  -0.01085  -0.01137  -4.74850
    X8      -10.33752   0.00000   0.00000   0.00589   0.00551 -10.33201
    Y8       -3.47555   0.00000   0.00000  -0.00927  -0.00915  -3.48470
    Z8       -1.27398  -0.00003   0.00000  -0.02183  -0.02248  -1.29646
    X9      -10.95110   0.00001   0.00000   0.01277   0.01248 -10.93861
    Y9       -1.61710  -0.00001   0.00000  -0.01250  -0.01179  -1.62889
    Z9       -3.96844  -0.00002   0.00000  -0.02552  -0.02578  -3.99423
   X10       -8.64450  -0.00000   0.00000   0.00215   0.00119  -8.64331
   Y10        2.00199   0.00003   0.00000  -0.00794  -0.00742   1.99458
   Z10       -2.08116  -0.00003   0.00000  -0.02175  -0.02083  -2.10198
   X11      -11.06786  -0.00001   0.00000  -0.00285  -0.00394 -11.07180
   Y11        0.99861  -0.00001   0.00000  -0.00921  -0.00949   0.98911
   Z11       -0.02504  -0.00002   0.00000  -0.02820  -0.02783  -0.05286
   X12       -5.93593  -0.00001   0.00000   0.00400   0.00363  -5.93230
   Y12       -4.71010  -0.00003   0.00000  -0.00276  -0.00238  -4.71248
   Z12       -0.19421   0.00001   0.00000  -0.00583  -0.00625  -0.20045
   X13       -4.13506  -0.00001   0.00000   0.00179   0.00088  -4.13418
   Y13        0.66076   0.00000   0.00000  -0.00217  -0.00131   0.65945
   Z13       -1.20151  -0.00001   0.00000  -0.00620  -0.00506  -1.20656
   X14       -7.97119  -0.00001   0.00000  -0.00830  -0.00942  -7.98061
   Y14       -1.32581  -0.00002   0.00000  -0.00294  -0.00350  -1.32932
   Z14        2.60727   0.00001   0.00000  -0.01634  -0.01616   2.59111
   X15       -6.96572  -0.00001   0.00000  -0.01082  -0.01230  -6.97802
   Y15        1.85290   0.00000   0.00000  -0.00204  -0.00239   1.85050
   Z15        2.24879  -0.00001   0.00000  -0.01628  -0.01519   2.23360
   X16       -6.36233   0.00001   0.00000   0.01482   0.01460  -6.34773
   Y16       -1.26453  -0.00001   0.00000  -0.00881  -0.00732  -1.27185
   Z16       -4.83084  -0.00001   0.00000  -0.01147  -0.01108  -4.84192
   X17       -2.67241   0.00001   0.00000   0.00965   0.00947  -2.66295
   Y17       -4.14840   0.00003   0.00000  -0.00312  -0.00182  -4.15023
   Z17       -2.26028  -0.00001   0.00000   0.00323   0.00335  -2.25693
   X18       -1.33906   0.00001   0.00000   0.00891   0.00878  -1.33028
   Y18       -2.83444  -0.00002   0.00000  -0.01274  -0.01084  -2.84528
   Z18       -4.01958  -0.00002   0.00000  -0.00454  -0.00392  -4.02350
   X19       -1.39193   0.00001   0.00000   0.01105   0.01085  -1.38109
   Y19       -5.67691   0.00001   0.00000   0.01020   0.01125  -5.66566
   Z19       -0.63833   0.00001   0.00000   0.01473   0.01464  -0.62369
   X20        1.22666  -0.00001   0.00000   0.00909   0.00899   1.23565
   Y20       -2.93616  -0.00001   0.00000  -0.01048  -0.00823  -2.94439
   Z20       -4.15515  -0.00003   0.00000  -0.00284  -0.00194  -4.15708
   X21       -2.43287   0.00001   0.00000   0.00798   0.00786  -2.42501
   Y21       -1.64281  -0.00001   0.00000  -0.02266  -0.02058  -1.66339
   Z21       -5.27358  -0.00000   0.00000  -0.01314  -0.01237  -5.28595
   X22        1.17316  -0.00001   0.00000   0.01135   0.01117   1.18433
   Y22       -5.83993  -0.00000   0.00000   0.01461   0.01597  -5.82397
   Z22       -0.62622   0.00003   0.00000   0.01791   0.01809  -0.60812
   X23       -2.53828   0.00001   0.00000   0.01165   0.01140  -2.52688
   Y23       -6.65860   0.00001   0.00000   0.01794   0.01850  -6.64010
   Z23        0.74858   0.00001   0.00000   0.02071   0.02023   0.76880
   X24        2.61032  -0.00000   0.00000   0.01016   0.00999   2.62030
   Y24       -4.27471  -0.00001   0.00000   0.00437   0.00632  -4.26839
   Z24       -2.26637   0.00001   0.00000   0.00697   0.00771  -2.25865
   X25        2.18299   0.00001   0.00000   0.00824   0.00819   2.19118
   Y25       -1.84318  -0.00000   0.00000  -0.01911  -0.01638  -1.85957
   Z25       -5.59306  -0.00001   0.00000  -0.00999  -0.00870  -5.60176
   X26        2.06012   0.00002   0.00000   0.01225   0.01202   2.07215
   Y26       -6.98154   0.00002   0.00000   0.02640   0.02751  -6.95403
   Z26        0.81634   0.00002   0.00000   0.02673   0.02673   0.84308
   X27        5.10366   0.00004   0.00000   0.01011   0.00989   5.11355
   Y27       -4.07614   0.00001   0.00000   0.00794   0.01015  -4.06599
   Z27       -2.05226   0.00003   0.00000   0.00521   0.00631  -2.04595
   X28        6.43085   0.00001   0.00000   0.01123   0.01083   6.44168
   Y28       -4.93708   0.00001   0.00000   0.02750   0.02930  -4.90778
   Z28        0.23440   0.00000   0.00000   0.01189   0.01295   0.24735
   X29        6.20843   0.00001   0.00000   0.01149   0.01131   6.21974
   Y29       -6.97625   0.00003   0.00000   0.02965   0.03135  -6.94489
   Z29        0.48334   0.00001   0.00000   0.02938   0.02990   0.51324
   X30        5.63764   0.00001   0.00000   0.01195   0.01123   5.64887
   Y30       -3.91653   0.00003   0.00000   0.04137   0.04266  -3.87387
   Z30        1.86274   0.00000   0.00000   0.00357   0.00479   1.86753
   X31        6.51048   0.00000   0.00000   0.00913   0.00882   6.51930
   Y31       -2.05634  -0.00001   0.00000  -0.00250   0.00020  -2.05614
   Z31       -3.33450  -0.00003   0.00000  -0.01241  -0.01063  -3.34513
   X32        7.00981   0.00000   0.00000   0.00770   0.00770   7.01750
   Y32       -2.65066  -0.00001   0.00000  -0.01850  -0.01526  -2.66593
   Z32       -5.25652  -0.00000   0.00000  -0.00783  -0.00614  -5.26266
   X33        5.32738   0.00002   0.00000   0.00935   0.00884   5.33622
   Y33       -0.36390   0.00001   0.00000  -0.00290  -0.00033  -0.36423
   Z33       -3.40767  -0.00002   0.00000  -0.02563  -0.02358  -3.43125
   X34       -2.69467  -0.00002   0.00000  -0.00719  -0.00827  -2.70294
   Y34       -1.04028  -0.00001   0.00000   0.00106   0.00131  -1.03896
   Z34        1.91087  -0.00003   0.00000   0.00023   0.00112   1.91199
   X35       -2.86405  -0.00002   0.00000  -0.01469  -0.01588  -2.87993
   Y35       -2.71060  -0.00002   0.00000   0.00180   0.00139  -2.70921
   Z35        4.49180  -0.00003   0.00000   0.00014   0.00060   4.49240
   X36       -5.13151   0.00002   0.00000  -0.01237  -0.01334  -5.14486
   Y36       -4.29890   0.00001   0.00000  -0.00083  -0.00149  -4.30039
   Z36        4.36345  -0.00002   0.00000  -0.00766  -0.00788   4.35558
   X37       -0.43284  -0.00001   0.00000  -0.01461  -0.01570  -0.44854
   Y37       -3.97606   0.00001   0.00000   0.00486   0.00465  -3.97141
   Z37        4.89001   0.00000   0.00000   0.00935   0.00980   4.89980
   X38       -1.37684   0.00006   0.00000  -0.00173  -0.00335  -1.38019
   Y38        4.68765   0.00002   0.00000   0.01514   0.01589   4.70354
   Z38        0.54829   0.00002   0.00000   0.01725   0.01974   0.56803
   X39       -0.45401   0.00012   0.00000  -0.01056  -0.01179  -0.46580
   Y39        3.85153  -0.00005   0.00000   0.02298   0.02443   3.87595
   Z39       -1.79405  -0.00002   0.00000   0.01097   0.01336  -1.78069
   X40       -1.90940   0.00001   0.00000  -0.02257  -0.02357  -1.93296
   Y40        4.09326   0.00001   0.00000   0.02142   0.02323   4.11649
   Z40       -3.97513  -0.00003   0.00000   0.01881   0.02108  -3.95405
   X41       -4.31884   0.00002   0.00000  -0.02658  -0.02772  -4.34655
   Y41        5.15967  -0.00001   0.00000   0.01111   0.01259   5.17226
   Z41       -3.88084  -0.00003   0.00000   0.03324   0.03548  -3.84536
   X42       -5.26124   0.00004   0.00000  -0.01841  -0.01993  -5.28117
   Y42        5.98558  -0.00001   0.00000   0.00233   0.00312   5.98870
   Z42       -1.56825   0.00004   0.00000   0.03988   0.04221  -1.52604
   X43       -3.79344   0.00003   0.00000  -0.00600  -0.00776  -3.80120
   Y43        5.75180  -0.00001   0.00000   0.00474   0.00517   5.75697
   Z43        0.60949  -0.00004   0.00000   0.03183   0.03429   0.64378
   X44        1.36480  -0.00015   0.00000  -0.00758  -0.00869   1.35611
   Y44        2.91105   0.00008   0.00000   0.03038   0.03207   2.94312
   Z44       -1.85465   0.00003   0.00000   0.00015   0.00253  -1.85212
   X45       -1.14283  -0.00004   0.00000  -0.02910  -0.02980  -1.17263
   Y45        3.45567   0.00003   0.00000   0.02816   0.03051   3.48618
   Z45       -5.77342   0.00005   0.00000   0.01379   0.01600  -5.75742
   X46       -5.44145  -0.00003   0.00000  -0.03621  -0.03717  -5.47861
   Y46        5.35560   0.00001   0.00000   0.00972   0.01149   5.36709
   Z46       -5.58888   0.00003   0.00000   0.03942   0.04157  -5.54731
   X47       -7.13243  -0.00011   0.00000  -0.02201  -0.02365  -7.15608
   Y47        6.82306   0.00003   0.00000  -0.00657  -0.00604   6.81702
   Z47       -1.45547   0.00007   0.00000   0.05162   0.05392  -1.40154
   X48       -4.54328  -0.00005   0.00000  -0.00009  -0.00215  -4.54543
   Y48        6.42586   0.00001   0.00000  -0.00254  -0.00264   6.42322
   Z48        2.40173   0.00013   0.00000   0.03740   0.03993   2.44165
   X49        1.02831   0.00005   0.00000   0.00688   0.00511   1.03342
   Y49        2.42442   0.00002   0.00000   0.01705   0.01724   2.44166
   Z49        4.02863  -0.00001   0.00000   0.01232   0.01454   4.04317
   X50       -0.81719  -0.00002   0.00000  -0.00564  -0.00671  -0.82391
   Y50       -0.56992  -0.00003   0.00000   0.00210   0.00271  -0.56721
   Z50        1.37049   0.00004   0.00000   0.00686   0.00811   1.37859
   X51        3.17790  -0.00007   0.00000  -0.00889  -0.01034   3.16756
   Y51        1.05989  -0.00001   0.00000   0.00011   0.00087   1.06076
   Z51        2.80972  -0.00000   0.00000   0.00370   0.00584   2.81556
   X52        2.42784   0.00004   0.00000  -0.02670  -0.02775   2.40009
   Y52       -0.02802   0.00006   0.00000   0.00362   0.00480  -0.02322
   Z52        0.69835   0.00003   0.00000   0.00834   0.01011   0.70846
   X53        3.87040  -0.00008   0.00000  -0.01239  -0.01386   3.85655
   Y53       -0.66569  -0.00011   0.00000  -0.00298  -0.00262  -0.66832
   Z53        4.73429   0.00000   0.00000   0.00217   0.00396   4.73825
   X54        2.54210   0.00010   0.00000  -0.02196  -0.02328   2.51882
   Y54       -1.94167   0.00013   0.00000   0.00747   0.00766  -1.93402
   Z54        4.73764   0.00000   0.00000   0.01016   0.01147   4.74911
   X55        5.47556  -0.00009   0.00000   0.00493   0.00328   5.47884
   Y55        2.87594   0.00007   0.00000  -0.01907  -0.01799   2.85794
   Z55        2.64647   0.00000   0.00000  -0.00963  -0.00676   2.63971
   X56        5.39403  -0.00001   0.00000   0.02548   0.02347   5.41751
   Y56        4.19368  -0.00003   0.00000  -0.01712  -0.01645   4.17723
   Z56        4.24610  -0.00002   0.00000  -0.01027  -0.00708   4.23903
   X57        7.14413   0.00002   0.00000  -0.00377  -0.00532   7.13881
   Y57        1.69423  -0.00006   0.00000  -0.03405  -0.03285   1.66138
   Z57        2.99006  -0.00003   0.00000  -0.01824  -0.01547   2.97459
   X58        0.18629  -0.00000   0.00000   0.01086   0.00893   0.19522
   Y58        4.70634  -0.00000   0.00000   0.01702   0.01736   4.72371
   Z58        2.98409  -0.00003   0.00000   0.00909   0.01177   2.99586
   X59       -1.00911   0.00000   0.00000   0.02167   0.01947  -0.98965
   Y59        5.56587   0.00003   0.00000   0.02615   0.02598   5.59185
   Z59        4.44534   0.00004   0.00000   0.01270   0.01545   4.46079
   X60        1.78205  -0.00001   0.00000   0.01432   0.01227   1.79432
   Y60        6.01086  -0.00001   0.00000   0.01009   0.01070   6.02156
   Z60        2.71314   0.00000   0.00000  -0.00331  -0.00011   2.71303
   X61       -3.21888  -0.00002   0.00000  -0.02629  -0.02806  -3.24694
   Y61       -0.48358   0.00003   0.00000   0.00238   0.00131  -0.48227
   Z61        6.98163   0.00002   0.00000  -0.00198  -0.00101   6.98062
   X62       -1.57715  -0.00003   0.00000  -0.02726  -0.02917  -1.60631
   Y62        0.76640  -0.00003   0.00000   0.00396   0.00312   0.76952
   Z62        6.86770  -0.00001   0.00000   0.00299   0.00447   6.87217
   X63       -4.97846  -0.00001   0.00000  -0.02633  -0.02819  -5.00665
   Y63        0.54777  -0.00000   0.00000   0.00029  -0.00093   0.54685
   Z63        6.67525  -0.00001   0.00000  -0.00871  -0.00770   6.66755
   X64       -3.27696  -0.00002   0.00000  -0.03130  -0.03316  -3.31011
   Y64       -1.52966   0.00001   0.00000   0.00326   0.00174  -1.52792
   Z64        8.75780   0.00000   0.00000  -0.00162  -0.00092   8.75688
   X65        5.85766   0.00027   0.00000   0.00465   0.00313   5.86079
   Y65        4.30973  -0.00017   0.00000  -0.02594  -0.02420   4.28553
   Z65        0.17372   0.00017   0.00000  -0.01335  -0.01008   0.16364
   X66        5.78872  -0.00004   0.00000  -0.03000  -0.03117   5.75756
   Y66        2.96579  -0.00015   0.00000  -0.02605  -0.02393   2.94187
   Z66       -1.39938  -0.00012   0.00000  -0.01241  -0.00949  -1.40887
   X67        4.31606  -0.00026   0.00000   0.02091   0.01926   4.33532
   Y67        5.64558   0.00028   0.00000  -0.00178  -0.00014   5.64543
   Z67       -0.17427   0.00001   0.00000   0.00064   0.00407  -0.17020
   X68        8.36856   0.00047   0.00000   0.02631   0.02462   8.39318
   Y68        5.73439  -0.00001   0.00000  -0.06454  -0.06247   5.67192
   Z68        0.14286   0.00039   0.00000  -0.03686  -0.03293   0.10993
   X69        8.65177  -0.00004   0.00000   0.02394   0.02235   8.67412
   Y69        6.75690  -0.00004   0.00000  -0.06802  -0.06547   6.69143
   Z69       -1.63227  -0.00010   0.00000  -0.03946  -0.03524  -1.66751
   X70        8.45554  -0.00002   0.00000   0.06113   0.05908   8.51463
   Y70        7.11102  -0.00044   0.00000  -0.06802  -0.06632   7.04470
   Z70        1.68826  -0.00036   0.00000  -0.03776  -0.03348   1.65478
   X71        9.96109  -0.00027   0.00000   0.00840   0.00685   9.96794
   Y71        4.43041   0.00022   0.00000  -0.08755  -0.08534   4.34507
   Z71        0.38964  -0.00005   0.00000  -0.05243  -0.04864   0.34100
   X72        9.15905   0.00000   0.00000   0.01097   0.01053   9.16958
   Y72       -4.16592   0.00003   0.00000   0.02319   0.02545  -4.14047
   Z72       -0.27904  -0.00001   0.00000   0.00401   0.00558  -0.27345
   X73       10.24859   0.00001   0.00000   0.01171   0.01104  10.25963
   Y73       -3.99148   0.00003   0.00000   0.03840   0.04036  -3.95112
   Z73        1.46365  -0.00000   0.00000   0.00201   0.00377   1.46742
   X74       10.08086   0.00001   0.00000   0.01051   0.01040  10.09126
   Y74       -5.56324   0.00001   0.00000   0.01254   0.01521  -5.54803
   Z74       -1.49702   0.00002   0.00000   0.01590   0.01724  -1.47978
   X75        8.84012  -0.00000   0.00000   0.01058   0.01002   8.85014
   Y75       -1.64739  -0.00000   0.00000   0.01112   0.01369  -1.63369
   Z75       -1.66587  -0.00001   0.00000  -0.01778  -0.01562  -1.68148
   X76        8.41788   0.00002   0.00000   0.01239   0.01147   8.42935
   Y76       -0.16367   0.00002   0.00000   0.02337   0.02555  -0.13812
   Z76       -0.29298  -0.00003   0.00000  -0.03049  -0.02801  -0.32099
   X77       10.49922   0.00001   0.00000   0.00995   0.00945  10.50867
   Y77       -1.08739  -0.00000   0.00000   0.00090   0.00395  -1.08343
   Z77       -2.75789  -0.00001   0.00000  -0.02399  -0.02148  -2.77937
         Item               Value     Threshold  Converged?
 Maximum Force            0.000466     0.000450     NO 
 RMS     Force            0.000077     0.000300     YES
 Maximum Displacement     0.085340     0.001800     NO 
 RMS     Displacement     0.019685     0.001200     NO 
 Predicted change in Energy=-6.363019D-05
 GradGradGradGradGradGradGradGradGradGradGradGradGradGradGradGradGradGrad

 Leave Link  103 at Thu Feb  7 16:00:10 2019, MaxMem=   104857600 cpu:              18.8 elap:               0.8
 (Enter /home/xinyan/g16/l9999.exe)
 1\1\GINC-TSE4\Force\RM062X\6-31G(d)\C27H41N3O5S1\STEVETSE\07-Feb-2019\
 0\\#p M062X/6-31G* em=gd3 force int=ultrafine\\Title\\0,1\C,-4.89715,0
 .23561,-0.45141\C,-5.07068,-1.02895,-1.29802\C,-3.73121,-1.47117,-1.90
 02\C,-2.74425,-1.71693,-0.76502\C,-2.52339,-0.42554,0.06516\C,-3.85859
 ,0.03912,0.65758\H,-3.84513,-2.376,-2.50678\H,-5.47038,-1.83918,-0.674
 16\H,-5.79507,-0.85573,-2.10001\H,-4.57447,1.05941,-1.1013\H,-5.85686,
 0.52844,-0.01325\H,-3.14116,-2.49248,-0.10277\H,-2.18818,0.34966,-0.63
 581\H,-4.21817,-0.70159,1.37971\H,-3.6861,0.98051,1.19001\H,-3.3668,-0
 .66916,-2.55637\N,-1.41418,-2.19524,-1.19609\C,-0.7086,-1.49992,-2.127
 07\C,-0.73658,-3.00409,-0.33779\C,0.64912,-1.55375,-2.19881\H,-1.28742
 ,-0.86934,-2.79066\C,0.62081,-3.09036,-0.33138\H,-1.3432,-3.52358,0.39
 613\C,1.38132,-2.26208,-1.19931\H,1.15519,-0.97537,-2.95972\H,1.09017,
 -3.69447,0.43199\N,2.70074,-2.157,-1.08601\C,3.40306,-2.61259,0.12404\
 H,3.28536,-3.69167,0.25577\H,2.98331,-2.07254,0.98572\C,3.4452,-1.0881
 7,-1.76454\H,3.70943,-1.40267,-2.78163\H,2.81913,-0.19257,-1.80326\N,-
 1.42596,-0.55049,1.01119\S,-1.51559,-1.43439,2.37696\O,-2.71548,-2.274
 88,2.30904\O,-0.22905,-2.10404,2.58768\C,-0.72859,2.4806,0.29014\C,-0.
 24025,2.03814,-0.94937\C,-1.01041,2.16606,-2.10355\C,-2.28543,2.73038,
 -2.05365\C,-2.78413,3.16743,-0.82988\C,-2.0074,3.04372,0.32253\H,0.722
 22,1.54046,-0.98144\H,-0.60476,1.82866,-3.05516\H,-2.87949,2.83406,-2.
 95751\H,-3.77432,3.61061,-0.7702\H,-2.4042,3.40042,1.27094\O,0.54416,1
 .28295,2.13186\H,-0.43244,-0.30159,0.72523\C,1.68167,0.56087,1.48684\O
 ,1.28476,-0.01483,0.36955\O,2.04813,-0.35227,2.50528\H,1.34522,-1.0274
 9,2.50705\C,2.89754,1.52188,1.40045\H,2.8544,2.2192,2.24694\H,3.78051,
 0.89655,1.58227\C,0.09858,2.49049,1.57911\H,-0.534,2.94533,2.35237\H,0
 .94302,3.18081,1.43573\C,-1.70336,-0.2559,3.69452\H,-0.83459,0.40556,3
 .63423\H,-2.63449,0.28987,3.53239\H,-1.73409,-0.80946,4.63443\C,3.0997
 4,2.28061,0.09193\H,3.06326,1.56943,-0.74052\H,2.28396,2.98751,-0.0922
 2\C,4.42845,3.03451,0.0756\H,4.57832,3.5756,-0.86376\H,4.47448,3.76299
 ,0.89339\H,5.27118,2.34447,0.20619\C,4.84676,-2.20451,-0.14766\H,5.423
 32,-2.1122,0.77453\H,5.33456,-2.94394,-0.79219\C,4.67799,-0.87176,-0.8
 8154\H,4.45455,-0.08661,-0.15504\H,5.55595,-0.57542,-1.45941\\Version=
 ES64L-G16RevA.03\State=1-A\HF=-1991.3587936\RMSD=9.566e-09\RMSF=7.730e
 -05\Dipole=-0.8921358,-0.6546646,-2.5607615\Quadrupole=7.9639183,-5.47
 46222,-2.4892961,-9.1934795,-3.9994489,7.281165\PG=C01 [X(C27H41N3O5S1
 )]\\@


 ON INDUCTION, OR "WHY DO YOU BELIEVE THE SUN WILL RISE TOMORROW?":

 ... THE FARMER WHO HAS FED THE CHICKEN EVERY DAY THROUGHOUT ITS
 LIFE AT LAST WRINGS ITS NECK INSTEAD, SHOWING THAT MORE REFINED VIEWS
 AS TO THE UNIFORMITY OF NATURE WOULD HAVE BEEN USEFUL TO THE CHICKEN.

                               -- BERTRAND RUSSELL
 Job cpu time:       0 days  1 hours 18 minutes 21.5 seconds.
 Elapsed time:       0 days  0 hours  3 minutes 17.1 seconds.
 File lengths (MBytes):  RWF=    216 Int=      0 D2E=      0 Chk=     25 Scr=      1
 Normal termination of Gaussian 16 at Thu Feb  7 16:00:10 2019.
