 Entering Gaussian System, Link 0=g16
 Input=C27N3H41SO5-106.gjf
 Output=C27N3H41SO5-106.log
 Initial command:
 /home/xinyan/g16/l1.exe "/local/home/tmp/Gau-10762.inp" -scrdir="/local/home/tmp/"
 Entering Link 1 = /home/xinyan/g16/l1.exe PID=     10763.
  
 Copyright (c) 1988,1990,1992,1993,1995,1998,2003,2009,2016,
            Gaussian, Inc.  All Rights Reserved.
  
 This is part of the Gaussian(R) 16 program.  It is based on
 the Gaussian(R) 09 system (copyright 2009, Gaussian, Inc.),
 the Gaussian(R) 03 system (copyright 2003, Gaussian, Inc.),
 the Gaussian(R) 98 system (copyright 1998, Gaussian, Inc.),
 the Gaussian(R) 94 system (copyright 1995, Gaussian, Inc.),
 the Gaussian 92(TM) system (copyright 1992, Gaussian, Inc.),
 the Gaussian 90(TM) system (copyright 1990, Gaussian, Inc.),
 the Gaussian 88(TM) system (copyright 1988, Gaussian, Inc.),
 the Gaussian 86(TM) system (copyright 1986, Carnegie Mellon
 University), and the Gaussian 82(TM) system (copyright 1983,
 Carnegie Mellon University). Gaussian is a federally registered
 trademark of Gaussian, Inc.
  
 This software contains proprietary and confidential information,
 including trade secrets, belonging to Gaussian, Inc.
  
 This software is provided under written license and may be
 used, copied, transmitted, or stored only in accord with that
 written license.
  
 The following legend is applicable only to US Government
 contracts under FAR:
  
                    RESTRICTED RIGHTS LEGEND
  
 Use, reproduction and disclosure by the US Government is
 subject to restrictions as set forth in subparagraphs (a)
 and (c) of the Commercial Computer Software - Restricted
 Rights clause in FAR 52.227-19.
  
 Gaussian, Inc.
 340 Quinnipiac St., Bldg. 40, Wallingford CT 06492
  
  
 ---------------------------------------------------------------
 Warning -- This program may not be used in any manner that
 competes with the business of Gaussian, Inc. or will provide
 assistance to any competitor of Gaussian, Inc.  The licensee
 of this program is prohibited from giving any competitor of
 Gaussian, Inc. access to this program.  By using this program,
 the user acknowledges that Gaussian, Inc. is engaged in the
 business of creating and licensing software in the field of
 computational chemistry and represents and warrants to the
 licensee that it is not a competitor of Gaussian, Inc. and that
 it will not use this program in any manner prohibited above.
 ---------------------------------------------------------------
  

 Cite this work as:
 Gaussian 16, Revision A.03,
 M. J. Frisch, G. W. Trucks, H. B. Schlegel, G. E. Scuseria, 
 M. A. Robb, J. R. Cheeseman, G. Scalmani, V. Barone, 
 G. A. Petersson, H. Nakatsuji, X. Li, M. Caricato, A. V. Marenich, 
 J. Bloino, B. G. Janesko, R. Gomperts, B. Mennucci, H. P. Hratchian, 
 J. V. Ortiz, A. F. Izmaylov, J. L. Sonnenberg, D. Williams-Young, 
 F. Ding, F. Lipparini, F. Egidi, J. Goings, B. Peng, A. Petrone, 
 T. Henderson, D. Ranasinghe, V. G. Zakrzewski, J. Gao, N. Rega, 
 G. Zheng, W. Liang, M. Hada, M. Ehara, K. Toyota, R. Fukuda, 
 J. Hasegawa, M. Ishida, T. Nakajima, Y. Honda, O. Kitao, H. Nakai, 
 T. Vreven, K. Throssell, J. A. Montgomery, Jr., J. E. Peralta, 
 F. Ogliaro, M. J. Bearpark, J. J. Heyd, E. N. Brothers, K. N. Kudin, 
 V. N. Staroverov, T. A. Keith, R. Kobayashi, J. Normand, 
 K. Raghavachari, A. P. Rendell, J. C. Burant, S. S. Iyengar, 
 J. Tomasi, M. Cossi, J. M. Millam, M. Klene, C. Adamo, R. Cammi, 
 J. W. Ochterski, R. L. Martin, K. Morokuma, O. Farkas, 
 J. B. Foresman, and D. J. Fox, Gaussian, Inc., Wallingford CT, 2016.
 
 ******************************************
 Gaussian 16:  ES64L-G16RevA.03 25-Dec-2016
                 7-Feb-2019 
 ******************************************
 %nproc=24
 Will use up to   24 processors via shared memory.
 ------------------------------------------
 #p M062X/6-31G* em=gd3 force int=ultrafine
 ------------------------------------------
 1/10=7,30=1,38=1/1,3;
 2/12=2,17=6,18=5,40=1/2;
 3/5=1,6=6,7=1,11=2,25=1,30=1,71=1,74=-55,75=-5,124=31/1,2,3;
 4//1;
 5/5=2,38=5/2;
 6/7=2,8=2,9=2,10=2,28=1/1;
 7/29=1/1,2,3,16;
 1/10=7,30=1/3;
 99//99;
 Leave Link    1 at Thu Feb  7 14:25:01 2019, MaxMem=           0 cpu:               2.5 elap:               0.1
 (Enter /home/xinyan/g16/l101.exe)
 -----
 Title
 -----
 Symbolic Z-matrix:
 Charge =  0 Multiplicity = 1
 C                    -4.89875   0.24799  -0.42969 
 C                    -5.08866  -1.02395  -1.2616 
 C                    -3.7585   -1.47987  -1.87408 
 C                    -2.75978  -1.71952  -0.74785 
 C                    -2.52545  -0.42354   0.0706 
 C                    -3.85147   0.05499   0.6718 
 H                    -3.88411  -2.39069  -2.46921 
 H                    -5.48596  -1.82546  -0.62504 
 H                    -5.82101  -0.85492  -2.05723 
 H                    -4.57605   1.06289  -1.0909 
 H                    -5.85234   0.55217   0.01402 
 H                    -3.15112  -2.48945  -0.0759 
 H                    -2.19198   0.34492  -0.63854 
 H                    -4.209    -0.67647   1.40429 
 H                    -3.66736   1.00014   1.19372 
 H                    -3.39707  -0.68747  -2.54339 
 N                    -1.43523  -2.20331  -1.19022 
 C                    -0.73179  -1.5004   -2.11789 
 C                    -0.75558  -3.02076  -0.3422 
 C                     0.62534  -1.55476  -2.1948 
 H                    -1.3123   -0.86131  -2.77184 
 C                     0.60157  -3.11378  -0.34566 
 H                    -1.35935  -3.54149   0.39323 
 C                     1.36071  -2.27905  -1.2089 
 H                     1.13024  -0.96737  -2.94972 
 H                     1.0728   -3.72665   0.40949 
 N                     2.68084  -2.18056  -1.10313 
 C                     3.39013  -2.66958   0.08905 
 H                     3.26793  -3.75099   0.19498 
 H                     2.98064  -2.14815   0.96676 
 C                     3.42305  -1.09244  -1.75529 
 H                     3.68592  -1.37991  -2.78071 
 H                     2.79582  -0.19698  -1.76366 
 N                    -1.42028  -0.54842   1.00817 
 S                    -1.49621  -1.42848   2.37906 
 O                    -2.70472  -2.2572    2.32654 
 O                    -0.21263  -2.10797   2.57223 
 C                    -0.70838   2.45922   0.24751 
 C                    -0.21286   1.99294  -0.98053 
 C                    -0.97056   2.1127   -2.14409 
 C                    -2.23973   2.69123  -2.11566 
 C                    -2.74496   3.15304  -0.90341 
 C                    -1.98104   3.03785   0.25835 
 H                     0.74412   1.48307  -0.99356 
 H                    -0.55922   1.75668  -3.08651 
 H                    -2.82385   2.78737  -3.02679 
 H                    -3.7307    3.60825  -0.8599 
 H                    -2.3837    3.41237   1.19757 
 O                     0.55466   1.26978   2.10151 
 H                    -0.43557  -0.29795   0.71836 
 C                     1.7149    0.55888   1.47516 
 O                     1.34352  -0.02015   0.35335 
 O                     2.07113  -0.35016   2.50051 
 H                     1.37641  -1.03353   2.48531 
 C                     2.91374   1.54032   1.41432 
 H                     2.83829   2.234     2.26118 
 H                     3.80802   0.93635   1.61086 
 C                     0.10127   2.47361   1.54821 
 H                    -0.54881   2.91674   2.31406 
 H                     0.93768   3.17701   1.42057 
 C                    -1.65701  -0.24583   3.69634 
 H                    -0.78103   0.40515   3.62715 
 H                    -2.58322   0.3106    3.5423 
 H                    -1.68558  -0.79855   4.63684 
 C                     3.12109   2.31096   0.11354 
 H                     3.21394   1.6008   -0.71565 
 H                     2.25025   2.92929  -0.12841 
 C                     4.36189   3.19983   0.18062 
 H                     4.52728   3.74065  -0.75633 
 H                     4.26399   3.93967   0.98198 
 H                     5.25836   2.60619   0.39242 
 C                     4.83251  -2.25844  -0.18336 
 H                     5.41991  -2.20038   0.73469 
 H                     5.30964  -2.97661  -0.85937 
 C                     4.65665  -0.90105  -0.86792 
 H                     4.42698  -0.14584  -0.11185 
 H                     5.5317   -0.57828  -1.43586 
 
 ITRead=  0  0  0  0  0  0  0  0  0  0  0  0  0  0  0  0  0  0  0  0
 ITRead=  0  0  0  0  0  0  0  0  0  0  0  0  0  0  0  0  0  0  0  0
 ITRead=  0  0  0  0  0  0  0  0  0  0  0  0  0  0  0  0  0  0  0  0
 ITRead=  0  0  0  0  0  0  0  0  0  0  0  0  0  0  0  0  0
 MicOpt= -1 -1 -1 -1 -1 -1 -1 -1 -1 -1 -1 -1 -1 -1 -1 -1 -1 -1 -1 -1
 MicOpt= -1 -1 -1 -1 -1 -1 -1 -1 -1 -1 -1 -1 -1 -1 -1 -1 -1 -1 -1 -1
 MicOpt= -1 -1 -1 -1 -1 -1 -1 -1 -1 -1 -1 -1 -1 -1 -1 -1 -1 -1 -1 -1
 MicOpt= -1 -1 -1 -1 -1 -1 -1 -1 -1 -1 -1 -1 -1 -1 -1 -1 -1
 NAtoms=     77 NQM=       77 NQMF=       0 NMMI=      0 NMMIF=      0
                NMic=       0 NMicF=      0.
                    Isotopes and Nuclear Properties:
 (Nuclear quadrupole moments (NQMom) in fm**2, nuclear magnetic moments (NMagM)
  in nuclear magnetons)

  Atom         1           2           3           4           5           6           7           8           9          10
 IAtWgt=          12          12          12          12          12          12           1           1           1           1
 AtmWgt=  12.0000000  12.0000000  12.0000000  12.0000000  12.0000000  12.0000000   1.0078250   1.0078250   1.0078250   1.0078250
 NucSpn=           0           0           0           0           0           0           1           1           1           1
 AtZEff=  -0.0000000  -0.0000000  -0.0000000  -0.0000000  -0.0000000  -0.0000000  -0.0000000  -0.0000000  -0.0000000  -0.0000000
 NQMom=    0.0000000   0.0000000   0.0000000   0.0000000   0.0000000   0.0000000   0.0000000   0.0000000   0.0000000   0.0000000
 NMagM=    0.0000000   0.0000000   0.0000000   0.0000000   0.0000000   0.0000000   2.7928460   2.7928460   2.7928460   2.7928460
 AtZNuc=   6.0000000   6.0000000   6.0000000   6.0000000   6.0000000   6.0000000   1.0000000   1.0000000   1.0000000   1.0000000

  Atom        11          12          13          14          15          16          17          18          19          20
 IAtWgt=           1           1           1           1           1           1          14          12          12          12
 AtmWgt=   1.0078250   1.0078250   1.0078250   1.0078250   1.0078250   1.0078250  14.0030740  12.0000000  12.0000000  12.0000000
 NucSpn=           1           1           1           1           1           1           2           0           0           0
 AtZEff=  -0.0000000  -0.0000000  -0.0000000  -0.0000000  -0.0000000  -0.0000000  -0.0000000  -0.0000000  -0.0000000  -0.0000000
 NQMom=    0.0000000   0.0000000   0.0000000   0.0000000   0.0000000   0.0000000   2.0440000   0.0000000   0.0000000   0.0000000
 NMagM=    2.7928460   2.7928460   2.7928460   2.7928460   2.7928460   2.7928460   0.4037610   0.0000000   0.0000000   0.0000000
 AtZNuc=   1.0000000   1.0000000   1.0000000   1.0000000   1.0000000   1.0000000   7.0000000   6.0000000   6.0000000   6.0000000

  Atom        21          22          23          24          25          26          27          28          29          30
 IAtWgt=           1          12           1          12           1           1          14          12           1           1
 AtmWgt=   1.0078250  12.0000000   1.0078250  12.0000000   1.0078250   1.0078250  14.0030740  12.0000000   1.0078250   1.0078250
 NucSpn=           1           0           1           0           1           1           2           0           1           1
 AtZEff=  -0.0000000  -0.0000000  -0.0000000  -0.0000000  -0.0000000  -0.0000000  -0.0000000  -0.0000000  -0.0000000  -0.0000000
 NQMom=    0.0000000   0.0000000   0.0000000   0.0000000   0.0000000   0.0000000   2.0440000   0.0000000   0.0000000   0.0000000
 NMagM=    2.7928460   0.0000000   2.7928460   0.0000000   2.7928460   2.7928460   0.4037610   0.0000000   2.7928460   2.7928460
 AtZNuc=   1.0000000   6.0000000   1.0000000   6.0000000   1.0000000   1.0000000   7.0000000   6.0000000   1.0000000   1.0000000

  Atom        31          32          33          34          35          36          37          38          39          40
 IAtWgt=          12           1           1          14          32          16          16          12          12          12
 AtmWgt=  12.0000000   1.0078250   1.0078250  14.0030740  31.9720718  15.9949146  15.9949146  12.0000000  12.0000000  12.0000000
 NucSpn=           0           1           1           2           0           0           0           0           0           0
 AtZEff=  -0.0000000  -0.0000000  -0.0000000  -0.0000000  -0.0000000  -0.0000000  -0.0000000  -0.0000000  -0.0000000  -0.0000000
 NQMom=    0.0000000   0.0000000   0.0000000   2.0440000   0.0000000   0.0000000   0.0000000   0.0000000   0.0000000   0.0000000
 NMagM=    0.0000000   2.7928460   2.7928460   0.4037610   0.0000000   0.0000000   0.0000000   0.0000000   0.0000000   0.0000000
 AtZNuc=   6.0000000   1.0000000   1.0000000   7.0000000  16.0000000   8.0000000   8.0000000   6.0000000   6.0000000   6.0000000

  Atom        41          42          43          44          45          46          47          48          49          50
 IAtWgt=          12          12          12           1           1           1           1           1          16           1
 AtmWgt=  12.0000000  12.0000000  12.0000000   1.0078250   1.0078250   1.0078250   1.0078250   1.0078250  15.9949146   1.0078250
 NucSpn=           0           0           0           1           1           1           1           1           0           1
 AtZEff=  -0.0000000  -0.0000000  -0.0000000  -0.0000000  -0.0000000  -0.0000000  -0.0000000  -0.0000000  -0.0000000  -0.0000000
 NQMom=    0.0000000   0.0000000   0.0000000   0.0000000   0.0000000   0.0000000   0.0000000   0.0000000   0.0000000   0.0000000
 NMagM=    0.0000000   0.0000000   0.0000000   2.7928460   2.7928460   2.7928460   2.7928460   2.7928460   0.0000000   2.7928460
 AtZNuc=   6.0000000   6.0000000   6.0000000   1.0000000   1.0000000   1.0000000   1.0000000   1.0000000   8.0000000   1.0000000

  Atom        51          52          53          54          55          56          57          58          59          60
 IAtWgt=          12          16          16           1          12           1           1          12           1           1
 AtmWgt=  12.0000000  15.9949146  15.9949146   1.0078250  12.0000000   1.0078250   1.0078250  12.0000000   1.0078250   1.0078250
 NucSpn=           0           0           0           1           0           1           1           0           1           1
 AtZEff=  -0.0000000  -0.0000000  -0.0000000  -0.0000000  -0.0000000  -0.0000000  -0.0000000  -0.0000000  -0.0000000  -0.0000000
 NQMom=    0.0000000   0.0000000   0.0000000   0.0000000   0.0000000   0.0000000   0.0000000   0.0000000   0.0000000   0.0000000
 NMagM=    0.0000000   0.0000000   0.0000000   2.7928460   0.0000000   2.7928460   2.7928460   0.0000000   2.7928460   2.7928460
 AtZNuc=   6.0000000   8.0000000   8.0000000   1.0000000   6.0000000   1.0000000   1.0000000   6.0000000   1.0000000   1.0000000

  Atom        61          62          63          64          65          66          67          68          69          70
 IAtWgt=          12           1           1           1          12           1           1          12           1           1
 AtmWgt=  12.0000000   1.0078250   1.0078250   1.0078250  12.0000000   1.0078250   1.0078250  12.0000000   1.0078250   1.0078250
 NucSpn=           0           1           1           1           0           1           1           0           1           1
 AtZEff=  -0.0000000  -0.0000000  -0.0000000  -0.0000000  -0.0000000  -0.0000000  -0.0000000  -0.0000000  -0.0000000  -0.0000000
 NQMom=    0.0000000   0.0000000   0.0000000   0.0000000   0.0000000   0.0000000   0.0000000   0.0000000   0.0000000   0.0000000
 NMagM=    0.0000000   2.7928460   2.7928460   2.7928460   0.0000000   2.7928460   2.7928460   0.0000000   2.7928460   2.7928460
 AtZNuc=   6.0000000   1.0000000   1.0000000   1.0000000   6.0000000   1.0000000   1.0000000   6.0000000   1.0000000   1.0000000

  Atom        71          72          73          74          75          76          77
 IAtWgt=           1          12           1           1          12           1           1
 AtmWgt=   1.0078250  12.0000000   1.0078250   1.0078250  12.0000000   1.0078250   1.0078250
 NucSpn=           1           0           1           1           0           1           1
 AtZEff=  -0.0000000  -0.0000000  -0.0000000  -0.0000000  -0.0000000  -0.0000000  -0.0000000
 NQMom=    0.0000000   0.0000000   0.0000000   0.0000000   0.0000000   0.0000000   0.0000000
 NMagM=    2.7928460   0.0000000   2.7928460   2.7928460   0.0000000   2.7928460   2.7928460
 AtZNuc=   1.0000000   6.0000000   1.0000000   1.0000000   6.0000000   1.0000000   1.0000000
 Leave Link  101 at Thu Feb  7 14:25:01 2019, MaxMem=   104857600 cpu:               5.1 elap:               0.2
 (Enter /home/xinyan/g16/l103.exe)

 GradGradGradGradGradGradGradGradGradGradGradGradGradGradGradGradGradGrad
 Berny optimization.
 Initialization pass.
 Trust Radius=3.00D-01 FncErr=1.00D-07 GrdErr=1.00D-07 EigMax=2.50D+02 EigMin=1.00D-04
 Number of steps in this run=      2 maximum allowed number of steps=      2.
 GradGradGradGradGradGradGradGradGradGradGradGradGradGradGradGradGradGrad

 Leave Link  103 at Thu Feb  7 14:25:01 2019, MaxMem=   104857600 cpu:               1.6 elap:               0.1
 (Enter /home/xinyan/g16/l202.exe)
 Stoichiometry    C27H41N3O5S
 Framework group  C1[X(C27H41N3O5S)]
 Deg. of freedom   225
 Full point group                 C1      NOp   1
 Largest Abelian subgroup         C1      NOp   1
 Largest concise Abelian subgroup C1      NOp   1
                         Standard orientation:                         
 ---------------------------------------------------------------------
 Center     Atomic      Atomic             Coordinates (Angstroms)
 Number     Number       Type             X           Y           Z
 ---------------------------------------------------------------------
      1          6           0       -4.785959    0.445234   -0.518739
      2          6           0       -4.989200   -0.848747   -1.312639
      3          6           0       -3.670407   -1.318018   -1.939448
      4          6           0       -2.648680   -1.525595   -0.827579
      5          6           0       -2.401361   -0.207848   -0.048663
      6          6           0       -3.716300    0.283734    0.566191
      7          1           0       -3.805553   -2.244585   -2.507569
      8          1           0       -5.371564   -1.633886   -0.647185
      9          1           0       -5.737797   -0.702430   -2.097577
     10          1           0       -4.478710    1.242949   -1.207683
     11          1           0       -5.731248    0.759117   -0.064157
     12          1           0       -3.024458   -2.278213   -0.127712
     13          1           0       -2.084184    0.542192   -0.784496
     14          1           0       -4.057161   -0.428749    1.324864
     15          1           0       -3.524224    1.242795    1.059054
     16          1           0       -3.324539   -0.542930   -2.636671
     17          7           0       -1.332012   -2.018220   -1.283521
     18          6           0       -0.649152   -1.338744   -2.243468
     19          6           0       -0.633364   -2.811443   -0.427967
     20          6           0        0.706299   -1.392315   -2.346195
     21          1           0       -1.244324   -0.718456   -2.902324
     22          6           0        0.723682   -2.901709   -0.456260
     23          1           0       -1.220904   -3.313704    0.333010
     24          6           0        1.463179   -2.088634   -1.356429
     25          1           0        1.194425   -0.824141   -3.126430
     26          1           0        1.211557   -3.493325    0.305243
     27          7           0        2.784903   -1.984633   -1.279886
     28          6           0        3.519232   -2.440339   -0.089668
     29          1           0        3.401999   -3.518805    0.047338
     30          1           0        3.126069   -1.896627    0.781966
     31          6           0        3.511047   -0.912685   -1.975470
     32          1           0        3.754047   -1.226748   -2.997987
     33          1           0        2.881444   -0.019066   -1.994963
     34          7           0       -1.277289   -0.305487    0.869466
     35         16           0       -1.323417   -1.148975    2.264461
     36          8           0       -2.530573   -1.981301    2.258258
     37          8           0       -0.034455   -1.820432    2.449721
     38          6           0       -0.588627    2.682354    0.015151
     39          6           0       -0.116622    2.184644   -1.209812
     40          6           0       -0.897814    2.271882   -2.360660
     41          6           0       -2.167662    2.848331   -2.322055
     42          6           0       -2.649681    3.341133   -1.112559
     43          6           0       -1.862318    3.258429    0.036244
     44          1           0        0.841230    1.676593   -1.228566
     45          1           0       -0.504531    1.891806   -3.301392
     46          1           0       -2.770186    2.919023   -3.223479
     47          1           0       -3.635533    3.795294   -1.061314
     48          1           0       -2.247035    3.656931    0.973112
     49          8           0        0.714436    1.545205    1.874256
     50          1           0       -0.299245   -0.060764    0.553366
     51          6           0        1.863730    0.820324    1.243764
     52          8           0        1.471437    0.210929    0.145401
     53          8           0        2.242819   -0.060417    2.285485
     54          1           0        1.549717   -0.745388    2.302390
     55          6           0        3.058547    1.802284    1.132815
     56          1           0        2.998288    2.518058    1.962329
     57          1           0        3.958160    1.205603    1.327271
     58          6           0        0.246905    2.732970    1.298461
     59          1           0       -0.388837    3.194939    2.065214
     60          1           0        1.078751    3.434463    1.135413
     61          6           0       -1.460848    0.067915    3.552885
     62          1           0       -0.588131    0.718642    3.448849
     63          1           0       -2.391408    0.618136    3.402808
     64          1           0       -1.469110   -0.459684    4.508096
     65          6           0        3.237759    2.538525   -0.191851
     66          1           0        3.315811    1.806783   -1.003618
     67          1           0        2.360633    3.148403   -0.432545
     68          6           0        4.477334    3.431433   -0.173340
     69          1           0        4.622490    3.947514   -1.127440
     70          1           0        4.393598    4.192096    0.609926
     71          1           0        5.379415    2.845489    0.036050
     72          6           0        4.954782   -2.033592   -0.401846
     73          1           0        5.560322   -1.949948    0.502339
     74          1           0        5.420129   -2.768476   -1.068036
     75          6           0        4.761692   -0.695234   -1.118484
     76          1           0        4.545264    0.079317   -0.378239
     77          1           0        5.624332   -0.385852   -1.712272
 ---------------------------------------------------------------------
 Rotational constants (GHZ):           0.1541835           0.1010714           0.0907805
 Leave Link  202 at Thu Feb  7 14:25:01 2019, MaxMem=   104857600 cpu:               2.4 elap:               0.1
 (Enter /home/xinyan/g16/l301.exe)
 Standard basis: 6-31G(d) (6D, 7F)
 Ernie: Thresh=  0.10000D-02 Tol=  0.10000D-05 Strict=F.
 There are   626 symmetry adapted cartesian basis functions of A   symmetry.
 There are   626 symmetry adapted basis functions of A   symmetry.
   626 basis functions,  1196 primitive gaussians,   626 cartesian basis functions
   140 alpha electrons      140 beta electrons
       nuclear repulsion energy      4990.7881123801 Hartrees.
 IExCor= 4336 DFT=T Ex+Corr=M062X ExCW=0 ScaHFX=  0.540000
 ScaDFX=  1.000000  1.000000  1.000000  1.000000 ScalE2=  1.000000  1.000000
 IRadAn=      5 IRanWt=     -1 IRanGd=            0 ICorTp=0 IEmpDi=131
 NAtoms=   77 NActive=   77 NUniq=   77 SFac= 1.00D+00 NAtFMM=   60 NAOKFM=T Big=T
 Integral buffers will be    131072 words long.
 Raffenetti 2 integral format.
 Two-electron integral symmetry is turned on.
 R6Disp:  Grimme-D3 Dispersion energy=       -0.0108329582 Hartrees.
 Nuclear repulsion after empirical dispersion term =     4990.7772794219 Hartrees.
 Leave Link  301 at Thu Feb  7 14:25:01 2019, MaxMem=   104857600 cpu:               3.0 elap:               0.2
 (Enter /home/xinyan/g16/l302.exe)
 NPDir=0 NMtPBC=     1 NCelOv=     1 NCel=       1 NClECP=     1 NCelD=      1
         NCelK=      1 NCelE2=     1 NClLst=     1 CellRange=     0.0.
 One-electron integrals computed using PRISM.
 One-electron integral symmetry used in STVInt
 PrsmSu:  requested number of processors reduced to:  23 ShMem   1 Linda.
 NBasis=   626 RedAO= T EigKep=  4.43D-04  NBF=   626
 NBsUse=   626 1.00D-06 EigRej= -1.00D+00 NBFU=   626
 Precomputing XC quadrature grid using
 IXCGrd= 4 IRadAn=           5 IRanWt=          -1 IRanGd=           0 AccXCQ= 0.00D+00.
 Generated NRdTot=       0 NPtTot=           0 NUsed=           0 NTot=          32
 NSgBfM=   621   621   621   621   621 MxSgAt=    77 MxSgA2=    77.
 Leave Link  302 at Thu Feb  7 14:25:06 2019, MaxMem=   104857600 cpu:             106.5 elap:               4.7
 (Enter /home/xinyan/g16/l303.exe)
 DipDrv:  MaxL=1.
 Leave Link  303 at Thu Feb  7 14:25:06 2019, MaxMem=   104857600 cpu:               6.2 elap:               0.3
 (Enter /home/xinyan/g16/l401.exe)
 ExpMin= 1.17D-01 ExpMax= 2.19D+04 ExpMxC= 3.30D+03 IAcc=3 IRadAn=         5 AccDes= 0.00D+00
 Harris functional with IExCor= 1009 and IRadAn=       5 diagonalized for initial guess.
 HarFok:  IExCor= 1009 AccDes= 0.00D+00 IRadAn=         5 IDoV= 1 UseB2=F ITyADJ=14
 ICtDFT=  3500011 ScaDFX=  1.000000  1.000000  1.000000  1.000000
 FoFCou: FMM=F IPFlag=           0 FMFlag=      100000 FMFlg1=        2001
         NFxFlg=           0 DoJE=T BraDBF=F KetDBF=T FulRan=T
         wScrn=  0.000000 ICntrl=       500 IOpCl=  0 I1Cent=   200000004 NGrid=           0
         NMat0=    1 NMatS0=      1 NMatT0=    0 NMatD0=    1 NMtDS0=    0 NMtDT0=    0
 Petite list used in FoFCou.
 Harris En= -1990.52970385843    
 JPrj=0 DoOrth=F DoCkMO=F.
 Leave Link  401 at Thu Feb  7 14:25:10 2019, MaxMem=   104857600 cpu:             100.2 elap:               4.2
 (Enter /home/xinyan/g16/l502.exe)
 Integral symmetry usage will be decided dynamically.
 Closed shell SCF:
 Using DIIS extrapolation, IDIIS=  1040.
 NGot=   104857600 LenX=   104051656 LenY=   103659154
 Requested convergence on RMS density matrix=1.00D-08 within 128 cycles.
 Requested convergence on MAX density matrix=1.00D-06.
 Requested convergence on             energy=1.00D-06.
 No special actions if energy rises.
 Fock matrices will be formed incrementally for  20 cycles.
 Integral accuracy reduced to 1.0D-05 until final iterations.

 Cycle   1  Pass 0  IDiag  1:
 FoFJK:  IHMeth= 1 ICntrl=       0 DoSepK=F KAlg= 0 I1Cent=           0 FoldK=F
 IRaf= 990000000 NMat=       1 IRICut=       1 DoRegI=T DoRafI=F ISym2E= 0 IDoP0=0 IntGTp=1.
 FoFCou: FMM=T IPFlag=           0 FMFlag=      100000 FMFlg1=        2001
         NFxFlg=           0 DoJE=F BraDBF=F KetDBF=F FulRan=T
         wScrn=  0.000000 ICntrl=         0 IOpCl=  0 I1Cent=           0 NGrid=           0
         NMat0=    1 NMatS0=      1 NMatT0=    0 NMatD0=    1 NMtDS0=    0 NMtDT0=    0
 Symmetry not used in FoFCou.
 FMM levels:  10  Number of levels for PrismC:   9
 E= -1990.29920758921    
 DIIS: error= 2.22D-02 at cycle   1 NSaved=   1.
 NSaved= 1 IEnMin= 1 EnMin= -1990.29920758921     IErMin= 1 ErrMin= 2.22D-02
 ErrMax= 2.22D-02  0.00D+00 EMaxC= 1.00D-01 BMatC= 1.24D+00 BMatP= 1.24D+00
 IDIUse=3 WtCom= 7.78D-01 WtEn= 2.22D-01
 Coeff-Com:  0.100D+01
 Coeff-En:   0.100D+01
 Coeff:      0.100D+01
 Gap=     0.367 Goal=   None    Shift=    0.000
 GapD=    0.367 DampG=1.000 DampE=0.500 DampFc=0.5000 IDamp=-1.
 Damping current iteration by 5.00D-01
 RMSDP=3.44D-03 MaxDP=3.46D-01              OVMax= 1.96D-01

 Cycle   2  Pass 0  IDiag  1:
 RMSU=  1.71D-03    CP:  9.88D-01
 E= -1990.81206027672     Delta-E=       -0.512852687513 Rises=F Damp=T
 DIIS: error= 7.45D-03 at cycle   2 NSaved=   2.
 NSaved= 2 IEnMin= 2 EnMin= -1990.81206027672     IErMin= 2 ErrMin= 7.45D-03
 ErrMax= 7.45D-03  0.00D+00 EMaxC= 1.00D-01 BMatC= 9.28D-02 BMatP= 1.24D+00
 IDIUse=3 WtCom= 9.25D-01 WtEn= 7.45D-02
 Coeff-Com: -0.287D-01 0.103D+01
 Coeff-En:   0.000D+00 0.100D+01
 Coeff:     -0.265D-01 0.103D+01
 Gap=     0.261 Goal=   None    Shift=    0.000
 RMSDP=8.56D-04 MaxDP=7.79D-02 DE=-5.13D-01 OVMax= 1.15D-01

 Cycle   3  Pass 0  IDiag  1:
 RMSU=  8.45D-04    CP:  9.81D-01  9.46D-01
 E= -1991.31737259886     Delta-E=       -0.505312322136 Rises=F Damp=F
 DIIS: error= 6.53D-03 at cycle   3 NSaved=   3.
 NSaved= 3 IEnMin= 3 EnMin= -1991.31737259886     IErMin= 3 ErrMin= 6.53D-03
 ErrMax= 6.53D-03  0.00D+00 EMaxC= 1.00D-01 BMatC= 4.94D-02 BMatP= 9.28D-02
 IDIUse=3 WtCom= 9.35D-01 WtEn= 6.53D-02
 Coeff-Com: -0.711D-01 0.440D+00 0.631D+00
 Coeff-En:   0.000D+00 0.000D+00 0.100D+01
 Coeff:     -0.665D-01 0.412D+00 0.655D+00
 Gap=     0.245 Goal=   None    Shift=    0.000
 RMSDP=5.10D-04 MaxDP=3.69D-02 DE=-5.05D-01 OVMax= 6.01D-02

 Cycle   4  Pass 0  IDiag  1:
 RMSU=  3.37D-04    CP:  9.84D-01  1.05D+00  6.04D-01
 E= -1991.34777552088     Delta-E=       -0.030402922025 Rises=F Damp=F
 DIIS: error= 3.92D-03 at cycle   4 NSaved=   4.
 NSaved= 4 IEnMin= 4 EnMin= -1991.34777552088     IErMin= 4 ErrMin= 3.92D-03
 ErrMax= 3.92D-03  0.00D+00 EMaxC= 1.00D-01 BMatC= 1.20D-02 BMatP= 4.94D-02
 IDIUse=3 WtCom= 9.61D-01 WtEn= 3.92D-02
 Coeff-Com: -0.285D-01 0.916D-01 0.358D+00 0.579D+00
 Coeff-En:   0.000D+00 0.000D+00 0.205D+00 0.795D+00
 Coeff:     -0.274D-01 0.880D-01 0.352D+00 0.587D+00
 Gap=     0.228 Goal=   None    Shift=    0.000
 RMSDP=2.05D-04 MaxDP=1.43D-02 DE=-3.04D-02 OVMax= 2.78D-02

 Cycle   5  Pass 0  IDiag  1:
 RMSU=  8.60D-05    CP:  9.83D-01  1.04D+00  7.32D-01  5.62D-01
 E= -1991.35774393081     Delta-E=       -0.009968409932 Rises=F Damp=F
 DIIS: error= 1.01D-03 at cycle   5 NSaved=   5.
 NSaved= 5 IEnMin= 5 EnMin= -1991.35774393081     IErMin= 5 ErrMin= 1.01D-03
 ErrMax= 1.01D-03  0.00D+00 EMaxC= 1.00D-01 BMatC= 5.83D-04 BMatP= 1.20D-02
 IDIUse=3 WtCom= 9.90D-01 WtEn= 1.01D-02
 Coeff-Com: -0.936D-02 0.215D-01 0.134D+00 0.285D+00 0.569D+00
 Coeff-En:   0.000D+00 0.000D+00 0.000D+00 0.000D+00 0.100D+01
 Coeff:     -0.926D-02 0.213D-01 0.133D+00 0.283D+00 0.573D+00
 Gap=     0.228 Goal=   None    Shift=    0.000
 RMSDP=5.08D-05 MaxDP=3.72D-03 DE=-9.97D-03 OVMax= 8.78D-03

 Cycle   6  Pass 0  IDiag  1:
 RMSU=  2.71D-05    CP:  9.83D-01  1.04D+00  7.31D-01  6.34D-01  5.92D-01
 E= -1991.35825022817     Delta-E=       -0.000506297353 Rises=F Damp=F
 DIIS: error= 3.28D-04 at cycle   6 NSaved=   6.
 NSaved= 6 IEnMin= 6 EnMin= -1991.35825022817     IErMin= 6 ErrMin= 3.28D-04
 ErrMax= 3.28D-04  0.00D+00 EMaxC= 1.00D-01 BMatC= 5.81D-05 BMatP= 5.83D-04
 IDIUse=3 WtCom= 9.97D-01 WtEn= 3.28D-03
 EnCoef did     1 forward-backward iterations
 Coeff-Com: -0.183D-02 0.192D-02 0.302D-01 0.826D-01 0.293D+00 0.594D+00
 Coeff-En:   0.000D+00 0.000D+00 0.000D+00 0.000D+00 0.176D-02 0.998D+00
 Coeff:     -0.182D-02 0.191D-02 0.301D-01 0.824D-01 0.292D+00 0.595D+00
 Gap=     0.229 Goal=   None    Shift=    0.000
 RMSDP=1.49D-05 MaxDP=8.81D-04 DE=-5.06D-04 OVMax= 2.36D-03

 Cycle   7  Pass 0  IDiag  1:
 RMSU=  9.34D-06    CP:  9.83D-01  1.04D+00  7.34D-01  6.35D-01  6.76D-01
                    CP:  6.76D-01
 E= -1991.35830499748     Delta-E=       -0.000054769316 Rises=F Damp=F
 DIIS: error= 5.12D-05 at cycle   7 NSaved=   7.
 NSaved= 7 IEnMin= 7 EnMin= -1991.35830499748     IErMin= 7 ErrMin= 5.12D-05
 ErrMax= 5.12D-05  0.00D+00 EMaxC= 1.00D-01 BMatC= 3.88D-06 BMatP= 5.81D-05
 IDIUse=1 WtCom= 1.00D+00 WtEn= 0.00D+00
 Coeff-Com:  0.168D-03-0.133D-02-0.126D-02 0.604D-02 0.719D-01 0.256D+00
 Coeff-Com:  0.669D+00
 Coeff:      0.168D-03-0.133D-02-0.126D-02 0.604D-02 0.719D-01 0.256D+00
 Coeff:      0.669D+00
 Gap=     0.228 Goal=   None    Shift=    0.000
 RMSDP=4.44D-06 MaxDP=2.40D-04 DE=-5.48D-05 OVMax= 5.13D-04

 Initial convergence to 1.0D-05 achieved.  Increase integral accuracy.
 Cycle   8  Pass 1  IDiag  1:
 E= -1991.35833619623     Delta-E=       -0.000031198752 Rises=F Damp=F
 DIIS: error= 2.07D-04 at cycle   1 NSaved=   1.
 NSaved= 1 IEnMin= 1 EnMin= -1991.35833619623     IErMin= 1 ErrMin= 2.07D-04
 ErrMax= 2.07D-04  0.00D+00 EMaxC= 1.00D-01 BMatC= 1.34D-05 BMatP= 1.34D-05
 IDIUse=3 WtCom= 9.98D-01 WtEn= 2.07D-03
 Coeff-Com:  0.100D+01
 Coeff-En:   0.100D+01
 Coeff:      0.100D+01
 Gap=     0.228 Goal=   None    Shift=    0.000
 RMSDP=4.44D-06 MaxDP=2.40D-04 DE=-3.12D-05 OVMax= 4.63D-04

 Cycle   9  Pass 1  IDiag  1:
 RMSU=  7.34D-05    CP:  1.00D+00
 E= -1991.35834818024     Delta-E=       -0.000011984006 Rises=F Damp=F
 DIIS: error= 2.17D-05 at cycle   2 NSaved=   2.
 NSaved= 2 IEnMin= 2 EnMin= -1991.35834818024     IErMin= 2 ErrMin= 2.17D-05
 ErrMax= 2.17D-05  0.00D+00 EMaxC= 1.00D-01 BMatC= 7.85D-07 BMatP= 1.34D-05
 IDIUse=1 WtCom= 1.00D+00 WtEn= 0.00D+00
 Coeff-Com:  0.683D-01 0.932D+00
 Coeff:      0.683D-01 0.932D+00
 Gap=     0.228 Goal=   None    Shift=    0.000
 RMSDP=3.85D-06 MaxDP=2.03D-04 DE=-1.20D-05 OVMax= 3.54D-04

 Cycle  10  Pass 1  IDiag  1:
 RMSU=  3.24D-06    CP:  1.00D+00  1.03D+00
 E= -1991.35834782983     Delta-E=        0.000000350406 Rises=F Damp=F
 DIIS: error= 3.57D-05 at cycle   3 NSaved=   3.
 NSaved= 3 IEnMin= 2 EnMin= -1991.35834818024     IErMin= 2 ErrMin= 2.17D-05
 ErrMax= 3.57D-05  0.00D+00 EMaxC= 1.00D-01 BMatC= 1.24D-06 BMatP= 7.85D-07
 IDIUse=1 WtCom= 1.00D+00 WtEn= 0.00D+00
 Coeff-Com: -0.144D-01 0.562D+00 0.452D+00
 Coeff:     -0.144D-01 0.562D+00 0.452D+00
 Gap=     0.228 Goal=   None    Shift=    0.000
 RMSDP=1.82D-06 MaxDP=1.21D-04 DE= 3.50D-07 OVMax= 2.21D-04

 Cycle  11  Pass 1  IDiag  1:
 RMSU=  6.20D-07    CP:  1.00D+00  1.03D+00  4.79D-01
 E= -1991.35834886319     Delta-E=       -0.000001033353 Rises=F Damp=F
 DIIS: error= 4.03D-06 at cycle   4 NSaved=   4.
 NSaved= 4 IEnMin= 4 EnMin= -1991.35834886319     IErMin= 4 ErrMin= 4.03D-06
 ErrMax= 4.03D-06  0.00D+00 EMaxC= 1.00D-01 BMatC= 1.12D-08 BMatP= 7.85D-07
 IDIUse=1 WtCom= 1.00D+00 WtEn= 0.00D+00
 Coeff-Com: -0.802D-02 0.257D+00 0.218D+00 0.533D+00
 Coeff:     -0.802D-02 0.257D+00 0.218D+00 0.533D+00
 Gap=     0.228 Goal=   None    Shift=    0.000
 RMSDP=2.18D-07 MaxDP=1.19D-05 DE=-1.03D-06 OVMax= 3.51D-05

 Cycle  12  Pass 1  IDiag  1:
 RMSU=  1.92D-07    CP:  1.00D+00  1.03D+00  4.97D-01  8.67D-01
 E= -1991.35834887357     Delta-E=       -0.000000010387 Rises=F Damp=F
 DIIS: error= 1.48D-06 at cycle   5 NSaved=   5.
 NSaved= 5 IEnMin= 5 EnMin= -1991.35834887357     IErMin= 5 ErrMin= 1.48D-06
 ErrMax= 1.48D-06  0.00D+00 EMaxC= 1.00D-01 BMatC= 9.33D-10 BMatP= 1.12D-08
 IDIUse=1 WtCom= 1.00D+00 WtEn= 0.00D+00
 Coeff-Com: -0.105D-02 0.198D-01 0.184D-01 0.214D+00 0.749D+00
 Coeff:     -0.105D-02 0.198D-01 0.184D-01 0.214D+00 0.749D+00
 Gap=     0.228 Goal=   None    Shift=    0.000
 RMSDP=8.37D-08 MaxDP=4.83D-06 DE=-1.04D-08 OVMax= 9.77D-06

 Cycle  13  Pass 1  IDiag  1:
 RMSU=  6.46D-08    CP:  1.00D+00  1.03D+00  4.98D-01  9.38D-01  8.64D-01
 E= -1991.35834887457     Delta-E=       -0.000000001000 Rises=F Damp=F
 DIIS: error= 4.84D-07 at cycle   6 NSaved=   6.
 NSaved= 6 IEnMin= 6 EnMin= -1991.35834887457     IErMin= 6 ErrMin= 4.84D-07
 ErrMax= 4.84D-07  0.00D+00 EMaxC= 1.00D-01 BMatC= 2.40D-10 BMatP= 9.33D-10
 IDIUse=1 WtCom= 1.00D+00 WtEn= 0.00D+00
 Coeff-Com:  0.742D-03-0.312D-01-0.261D-01 0.371D-01 0.411D+00 0.608D+00
 Coeff:      0.742D-03-0.312D-01-0.261D-01 0.371D-01 0.411D+00 0.608D+00
 Gap=     0.228 Goal=   None    Shift=    0.000
 RMSDP=3.51D-08 MaxDP=1.87D-06 DE=-1.00D-09 OVMax= 5.29D-06

 Cycle  14  Pass 1  IDiag  1:
 RMSU=  2.47D-08    CP:  1.00D+00  1.03D+00  4.99D-01  9.58D-01  9.47D-01
                    CP:  7.84D-01
 E= -1991.35834887473     Delta-E=       -0.000000000158 Rises=F Damp=F
 DIIS: error= 1.48D-07 at cycle   7 NSaved=   7.
 NSaved= 7 IEnMin= 7 EnMin= -1991.35834887473     IErMin= 7 ErrMin= 1.48D-07
 ErrMax= 1.48D-07  0.00D+00 EMaxC= 1.00D-01 BMatC= 1.57D-11 BMatP= 2.40D-10
 IDIUse=1 WtCom= 1.00D+00 WtEn= 0.00D+00
 Coeff-Com:  0.404D-03-0.150D-01-0.129D-01 0.569D-03 0.113D+00 0.266D+00
 Coeff-Com:  0.648D+00
 Coeff:      0.404D-03-0.150D-01-0.129D-01 0.569D-03 0.113D+00 0.266D+00
 Coeff:      0.648D+00
 Gap=     0.228 Goal=   None    Shift=    0.000
 RMSDP=9.28D-09 MaxDP=5.11D-07 DE=-1.58D-10 OVMax= 1.49D-06

 SCF Done:  E(RM062X) =  -1991.35834887     A.U. after   14 cycles
            NFock= 14  Conv=0.93D-08     -V/T= 2.0076
 KE= 1.976422600153D+03 PE=-1.463387364714D+04 EE= 5.675315418692D+03
 Leave Link  502 at Thu Feb  7 14:27:39 2019, MaxMem=   104857600 cpu:            3558.7 elap:             148.6
 (Enter /home/xinyan/g16/l601.exe)
 Copying SCF densities to generalized density rwf, IOpCl= 0 IROHF=0.

 **********************************************************************

            Population analysis using the SCF density.

 **********************************************************************

 Orbital symmetries:
       Occupied  (A) (A) (A) (A) (A) (A) (A) (A) (A) (A) (A) (A)
                 (A) (A) (A) (A) (A) (A) (A) (A) (A) (A) (A) (A)
                 (A) (A) (A) (A) (A) (A) (A) (A) (A) (A) (A) (A)
                 (A) (A) (A) (A) (A) (A) (A) (A) (A) (A) (A) (A)
                 (A) (A) (A) (A) (A) (A) (A) (A) (A) (A) (A) (A)
                 (A) (A) (A) (A) (A) (A) (A) (A) (A) (A) (A) (A)
                 (A) (A) (A) (A) (A) (A) (A) (A) (A) (A) (A) (A)
                 (A) (A) (A) (A) (A) (A) (A) (A) (A) (A) (A) (A)
                 (A) (A) (A) (A) (A) (A) (A) (A) (A) (A) (A) (A)
                 (A) (A) (A) (A) (A) (A) (A) (A) (A) (A) (A) (A)
                 (A) (A) (A) (A) (A) (A) (A) (A) (A) (A) (A) (A)
                 (A) (A) (A) (A) (A) (A) (A) (A)
       Virtual   (A) (A) (A) (A) (A) (A) (A) (A) (A) (A) (A) (A)
                 (A) (A) (A) (A) (A) (A) (A) (A) (A) (A) (A) (A)
                 (A) (A) (A) (A) (A) (A) (A) (A) (A) (A) (A) (A)
                 (A) (A) (A) (A) (A) (A) (A) (A) (A) (A) (A) (A)
                 (A) (A) (A) (A) (A) (A) (A) (A) (A) (A) (A) (A)
                 (A) (A) (A) (A) (A) (A) (A) (A) (A) (A) (A) (A)
                 (A) (A) (A) (A) (A) (A) (A) (A) (A) (A) (A) (A)
                 (A) (A) (A) (A) (A) (A) (A) (A) (A) (A) (A) (A)
                 (A) (A) (A) (A) (A) (A) (A) (A) (A) (A) (A) (A)
                 (A) (A) (A) (A) (A) (A) (A) (A) (A) (A) (A) (A)
                 (A) (A) (A) (A) (A) (A) (A) (A) (A) (A) (A) (A)
                 (A) (A) (A) (A) (A) (A) (A) (A) (A) (A) (A) (A)
                 (A) (A) (A) (A) (A) (A) (A) (A) (A) (A) (A) (A)
                 (A) (A) (A) (A) (A) (A) (A) (A) (A) (A) (A) (A)
                 (A) (A) (A) (A) (A) (A) (A) (A) (A) (A) (A) (A)
                 (A) (A) (A) (A) (A) (A) (A) (A) (A) (A) (A) (A)
                 (A) (A) (A) (A) (A) (A) (A) (A) (A) (A) (A) (A)
                 (A) (A) (A) (A) (A) (A) (A) (A) (A) (A) (A) (A)
                 (A) (A) (A) (A) (A) (A) (A) (A) (A) (A) (A) (A)
                 (A) (A) (A) (A) (A) (A) (A) (A) (A) (A) (A) (A)
                 (A) (A) (A) (A) (A) (A) (A) (A) (A) (A) (A) (A)
                 (A) (A) (A) (A) (A) (A) (A) (A) (A) (A) (A) (A)
                 (A) (A) (A) (A) (A) (A) (A) (A) (A) (A) (A) (A)
                 (A) (A) (A) (A) (A) (A) (A) (A) (A) (A) (A) (A)
                 (A) (A) (A) (A) (A) (A) (A) (A) (A) (A) (A) (A)
                 (A) (A) (A) (A) (A) (A) (A) (A) (A) (A) (A) (A)
                 (A) (A) (A) (A) (A) (A) (A) (A) (A) (A) (A) (A)
                 (A) (A) (A) (A) (A) (A) (A) (A) (A) (A) (A) (A)
                 (A) (A) (A) (A) (A) (A) (A) (A) (A) (A) (A) (A)
                 (A) (A) (A) (A) (A) (A) (A) (A) (A) (A) (A) (A)
                 (A) (A) (A) (A) (A) (A) (A) (A) (A) (A) (A) (A)
                 (A) (A) (A) (A) (A) (A) (A) (A) (A) (A) (A) (A)
                 (A) (A) (A) (A) (A) (A) (A) (A) (A) (A) (A) (A)
                 (A) (A) (A) (A) (A) (A) (A) (A) (A) (A) (A) (A)
                 (A) (A) (A) (A) (A) (A) (A) (A) (A) (A) (A) (A)
                 (A) (A) (A) (A) (A) (A) (A) (A) (A) (A) (A) (A)
                 (A) (A) (A) (A) (A) (A) (A) (A) (A) (A) (A) (A)
                 (A) (A) (A) (A) (A) (A) (A) (A) (A) (A) (A) (A)
                 (A) (A) (A) (A) (A) (A) (A) (A) (A) (A) (A) (A)
                 (A) (A) (A) (A) (A) (A) (A) (A) (A) (A) (A) (A)
                 (A) (A) (A) (A) (A) (A)
 The electronic state is 1-A.
 Alpha  occ. eigenvalues --  -90.14220 -19.61821 -19.61794 -19.58651 -19.56684
 Alpha  occ. eigenvalues --  -19.51199 -14.85184 -14.80439 -14.75852 -10.63421
 Alpha  occ. eigenvalues --  -10.62789 -10.62215 -10.62211 -10.60753 -10.59392
 Alpha  occ. eigenvalues --  -10.58409 -10.58003 -10.57960 -10.57173 -10.56893
 Alpha  occ. eigenvalues --  -10.56706 -10.55675 -10.55622 -10.55102 -10.54851
 Alpha  occ. eigenvalues --  -10.54813 -10.54800 -10.54736 -10.54585 -10.54408
 Alpha  occ. eigenvalues --  -10.54348 -10.54331 -10.53066 -10.51466 -10.51423
 Alpha  occ. eigenvalues --  -10.49653  -8.45197  -6.37414  -6.37391  -6.37233
 Alpha  occ. eigenvalues --   -1.22042  -1.13592  -1.13469  -1.10296  -1.09339
 Alpha  occ. eigenvalues --   -1.05854  -1.01792  -0.99300  -0.95763  -0.94995
 Alpha  occ. eigenvalues --   -0.93507  -0.90310  -0.88757  -0.85937  -0.85753
 Alpha  occ. eigenvalues --   -0.84826  -0.84723  -0.84216  -0.83061  -0.82721
 Alpha  occ. eigenvalues --   -0.76674  -0.76254  -0.75830  -0.74349  -0.72820
 Alpha  occ. eigenvalues --   -0.71667  -0.68328  -0.68218  -0.67940  -0.67230
 Alpha  occ. eigenvalues --   -0.66738  -0.65241  -0.64868  -0.63530  -0.60547
 Alpha  occ. eigenvalues --   -0.60404  -0.59774  -0.59079  -0.57803  -0.57609
 Alpha  occ. eigenvalues --   -0.57192  -0.56444  -0.55797  -0.55171  -0.54207
 Alpha  occ. eigenvalues --   -0.53564  -0.52668  -0.52480  -0.52458  -0.51908
 Alpha  occ. eigenvalues --   -0.51556  -0.51009  -0.50711  -0.49887  -0.49536
 Alpha  occ. eigenvalues --   -0.49164  -0.48849  -0.48209  -0.48141  -0.47995
 Alpha  occ. eigenvalues --   -0.47687  -0.47476  -0.46923  -0.46423  -0.46103
 Alpha  occ. eigenvalues --   -0.44887  -0.44742  -0.44158  -0.43862  -0.43265
 Alpha  occ. eigenvalues --   -0.42529  -0.42151  -0.41386  -0.41301  -0.41097
 Alpha  occ. eigenvalues --   -0.40905  -0.40495  -0.39991  -0.39799  -0.39288
 Alpha  occ. eigenvalues --   -0.39251  -0.39079  -0.38435  -0.37986  -0.37609
 Alpha  occ. eigenvalues --   -0.37392  -0.36745  -0.36552  -0.35766  -0.34913
 Alpha  occ. eigenvalues --   -0.34392  -0.33987  -0.31669  -0.31127  -0.29777
 Alpha  occ. eigenvalues --   -0.28874  -0.28605  -0.27660  -0.24789  -0.24368
 Alpha virt. eigenvalues --   -0.01529   0.00395   0.03541   0.03745   0.10133
 Alpha virt. eigenvalues --    0.10969   0.11646   0.12228   0.13164   0.13492
 Alpha virt. eigenvalues --    0.14222   0.14565   0.14755   0.15223   0.15599
 Alpha virt. eigenvalues --    0.16053   0.16835   0.16953   0.17198   0.17695
 Alpha virt. eigenvalues --    0.18054   0.18319   0.18465   0.18807   0.18955
 Alpha virt. eigenvalues --    0.19296   0.19748   0.19933   0.20116   0.20272
 Alpha virt. eigenvalues --    0.20644   0.20958   0.21074   0.21552   0.21649
 Alpha virt. eigenvalues --    0.22140   0.22547   0.22852   0.23381   0.23708
 Alpha virt. eigenvalues --    0.23880   0.24217   0.24569   0.24727   0.24903
 Alpha virt. eigenvalues --    0.25277   0.25482   0.25934   0.26334   0.26805
 Alpha virt. eigenvalues --    0.27080   0.27804   0.27864   0.28593   0.28994
 Alpha virt. eigenvalues --    0.29363   0.29502   0.29795   0.30782   0.30929
 Alpha virt. eigenvalues --    0.31302   0.31618   0.32146   0.32579   0.33112
 Alpha virt. eigenvalues --    0.33632   0.34566   0.35258   0.35481   0.35812
 Alpha virt. eigenvalues --    0.36544   0.37368   0.37705   0.37982   0.38841
 Alpha virt. eigenvalues --    0.39957   0.40385   0.40742   0.42819   0.43255
 Alpha virt. eigenvalues --    0.44435   0.44718   0.47017   0.48057   0.48815
 Alpha virt. eigenvalues --    0.49805   0.51184   0.52703   0.53423   0.54945
 Alpha virt. eigenvalues --    0.55148   0.55347   0.56010   0.56563   0.56894
 Alpha virt. eigenvalues --    0.57514   0.58303   0.58617   0.58818   0.59483
 Alpha virt. eigenvalues --    0.59533   0.59915   0.60383   0.60484   0.60556
 Alpha virt. eigenvalues --    0.61155   0.61427   0.62380   0.62606   0.62881
 Alpha virt. eigenvalues --    0.63757   0.64046   0.64551   0.65002   0.65594
 Alpha virt. eigenvalues --    0.66051   0.66593   0.66969   0.67463   0.67910
 Alpha virt. eigenvalues --    0.68371   0.69005   0.69077   0.69978   0.70632
 Alpha virt. eigenvalues --    0.71043   0.71455   0.71766   0.72947   0.73482
 Alpha virt. eigenvalues --    0.73603   0.74268   0.74732   0.74921   0.75761
 Alpha virt. eigenvalues --    0.76588   0.77289   0.77809   0.78672   0.79029
 Alpha virt. eigenvalues --    0.79489   0.79871   0.80218   0.80956   0.81291
 Alpha virt. eigenvalues --    0.81744   0.82094   0.82804   0.83917   0.84574
 Alpha virt. eigenvalues --    0.84847   0.85340   0.85718   0.86090   0.87097
 Alpha virt. eigenvalues --    0.87744   0.88432   0.89001   0.89433   0.89562
 Alpha virt. eigenvalues --    0.89740   0.90120   0.90567   0.91049   0.91255
 Alpha virt. eigenvalues --    0.91685   0.92258   0.92807   0.92995   0.93249
 Alpha virt. eigenvalues --    0.93630   0.94207   0.94701   0.95074   0.95333
 Alpha virt. eigenvalues --    0.95827   0.96107   0.96665   0.96767   0.97019
 Alpha virt. eigenvalues --    0.97281   0.97900   0.98109   0.98393   0.98449
 Alpha virt. eigenvalues --    0.99162   0.99557   0.99787   1.00486   1.00853
 Alpha virt. eigenvalues --    1.01327   1.01889   1.02244   1.02721   1.03033
 Alpha virt. eigenvalues --    1.03199   1.04206   1.04542   1.04619   1.05727
 Alpha virt. eigenvalues --    1.05946   1.07012   1.07658   1.08327   1.09150
 Alpha virt. eigenvalues --    1.10311   1.10735   1.11591   1.11695   1.11879
 Alpha virt. eigenvalues --    1.13381   1.13588   1.14668   1.15056   1.15613
 Alpha virt. eigenvalues --    1.16879   1.17729   1.18366   1.18607   1.18947
 Alpha virt. eigenvalues --    1.19906   1.20826   1.21080   1.21721   1.22108
 Alpha virt. eigenvalues --    1.22505   1.23624   1.24108   1.24836   1.25599
 Alpha virt. eigenvalues --    1.26032   1.27849   1.28794   1.29423   1.30483
 Alpha virt. eigenvalues --    1.31399   1.31470   1.32135   1.32683   1.33703
 Alpha virt. eigenvalues --    1.33928   1.34405   1.35154   1.36236   1.37074
 Alpha virt. eigenvalues --    1.37257   1.38381   1.39101   1.40574   1.41292
 Alpha virt. eigenvalues --    1.41786   1.42400   1.43666   1.44527   1.46277
 Alpha virt. eigenvalues --    1.47389   1.47936   1.48430   1.49188   1.49821
 Alpha virt. eigenvalues --    1.51074   1.51891   1.52438   1.52811   1.54443
 Alpha virt. eigenvalues --    1.54863   1.55090   1.55988   1.57177   1.57227
 Alpha virt. eigenvalues --    1.57469   1.58497   1.60502   1.60994   1.61228
 Alpha virt. eigenvalues --    1.61897   1.62816   1.63582   1.65569   1.67458
 Alpha virt. eigenvalues --    1.69038   1.69669   1.70206   1.72114   1.72673
 Alpha virt. eigenvalues --    1.74251   1.74740   1.75922   1.77233   1.77868
 Alpha virt. eigenvalues --    1.78532   1.79514   1.80432   1.80965   1.81915
 Alpha virt. eigenvalues --    1.84347   1.84548   1.85186   1.85792   1.85868
 Alpha virt. eigenvalues --    1.86328   1.87092   1.87601   1.87935   1.88953
 Alpha virt. eigenvalues --    1.89914   1.90076   1.90330   1.90909   1.91908
 Alpha virt. eigenvalues --    1.92698   1.93779   1.94238   1.94693   1.94858
 Alpha virt. eigenvalues --    1.95417   1.95940   1.96531   1.97100   1.97725
 Alpha virt. eigenvalues --    1.98688   1.99079   1.99303   2.00009   2.00892
 Alpha virt. eigenvalues --    2.01824   2.02158   2.02373   2.02747   2.04171
 Alpha virt. eigenvalues --    2.04581   2.06122   2.06303   2.07010   2.07388
 Alpha virt. eigenvalues --    2.07653   2.08432   2.08819   2.09262   2.09456
 Alpha virt. eigenvalues --    2.09882   2.10628   2.11784   2.11981   2.12910
 Alpha virt. eigenvalues --    2.12957   2.14255   2.14394   2.15220   2.15882
 Alpha virt. eigenvalues --    2.16249   2.16608   2.17196   2.18770   2.19044
 Alpha virt. eigenvalues --    2.19935   2.20312   2.20736   2.21495   2.22354
 Alpha virt. eigenvalues --    2.23147   2.23415   2.23667   2.23770   2.24576
 Alpha virt. eigenvalues --    2.25431   2.25827   2.26381   2.27471   2.28397
 Alpha virt. eigenvalues --    2.29013   2.30191   2.30799   2.30960   2.31469
 Alpha virt. eigenvalues --    2.32255   2.33966   2.34668   2.35176   2.35615
 Alpha virt. eigenvalues --    2.36048   2.37450   2.37588   2.38561   2.38761
 Alpha virt. eigenvalues --    2.39010   2.40348   2.40992   2.41481   2.42738
 Alpha virt. eigenvalues --    2.43332   2.44433   2.45401   2.46071   2.47030
 Alpha virt. eigenvalues --    2.49515   2.50605   2.51868   2.52264   2.52782
 Alpha virt. eigenvalues --    2.54290   2.54488   2.56008   2.56985   2.59949
 Alpha virt. eigenvalues --    2.60898   2.61838   2.62322   2.63194   2.63874
 Alpha virt. eigenvalues --    2.64662   2.64813   2.65708   2.67222   2.68312
 Alpha virt. eigenvalues --    2.68859   2.69590   2.70347   2.71693   2.72771
 Alpha virt. eigenvalues --    2.73550   2.74457   2.76240   2.76690   2.77546
 Alpha virt. eigenvalues --    2.79533   2.80238   2.80625   2.80771   2.81591
 Alpha virt. eigenvalues --    2.83487   2.85441   2.86163   2.87115   2.88380
 Alpha virt. eigenvalues --    2.89229   2.91038   2.92531   2.93943   2.96899
 Alpha virt. eigenvalues --    2.99673   3.00340   3.03178   3.05281   3.10565
 Alpha virt. eigenvalues --    3.14758   3.16390   3.23869   3.41298   3.42777
 Alpha virt. eigenvalues --    3.96536   4.02124   4.04749   4.09418   4.11010
 Alpha virt. eigenvalues --    4.15686   4.17104   4.17985   4.18671   4.19656
 Alpha virt. eigenvalues --    4.21069   4.23106   4.24461   4.26518   4.27579
 Alpha virt. eigenvalues --    4.29647   4.32620   4.33201   4.34611   4.35145
 Alpha virt. eigenvalues --    4.40037   4.40809   4.41894   4.43737   4.47397
 Alpha virt. eigenvalues --    4.49712   4.55710   4.58171   4.59279   4.61430
 Alpha virt. eigenvalues --    4.63883   4.66149   4.73721   4.75629   4.76805
 Alpha virt. eigenvalues --    4.80208
          Condensed to atoms (all electrons):
 Mulliken charges:
               1
     1  C   -0.306290
     2  C   -0.307172
     3  C   -0.309181
     4  C   -0.060302
     5  C    0.056465
     6  C   -0.311362
     7  H    0.174073
     8  H    0.162881
     9  H    0.165586
    10  H    0.150996
    11  H    0.163459
    12  H    0.209105
    13  H    0.173219
    14  H    0.193229
    15  H    0.163594
    16  H    0.154345
    17  N   -0.430659
    18  C    0.067337
    19  C    0.063954
    20  C   -0.201595
    21  H    0.206359
    22  C   -0.209322
    23  H    0.245083
    24  C    0.445858
    25  H    0.192148
    26  H    0.211500
    27  N   -0.525813
    28  C   -0.170648
    29  H    0.169728
    30  H    0.229083
    31  C   -0.154781
    32  H    0.165341
    33  H    0.206298
    34  N   -0.815107
    35  S    1.252957
    36  O   -0.611634
    37  O   -0.605867
    38  C    0.083882
    39  C   -0.184955
    40  C   -0.189859
    41  C   -0.171355
    42  C   -0.163734
    43  C   -0.212039
    44  H    0.212443
    45  H    0.140529
    46  H    0.154937
    47  H    0.158608
    48  H    0.152476
    49  O   -0.551402
    50  H    0.448256
    51  C    0.724043
    52  O   -0.721403
    53  O   -0.717970
    54  H    0.444252
    55  C   -0.338561
    56  H    0.148614
    57  H    0.151201
    58  C   -0.090801
    59  H    0.139657
    60  H    0.147831
    61  C   -0.663345
    62  H    0.274023
    63  H    0.196359
    64  H    0.217670
    65  C   -0.292280
    66  H    0.135115
    67  H    0.146154
    68  C   -0.473298
    69  H    0.148800
    70  H    0.154344
    71  H    0.145336
    72  C   -0.331940
    73  H    0.187021
    74  H    0.162873
    75  C   -0.343049
    76  H    0.197715
    77  H    0.170985
 Sum of Mulliken charges =  -0.00000
 Mulliken charges with hydrogens summed into heavy atoms:
               1
     1  C    0.008165
     2  C    0.021296
     3  C    0.019237
     4  C    0.148804
     5  C    0.229684
     6  C    0.045461
    17  N   -0.430659
    18  C    0.273696
    19  C    0.309037
    20  C   -0.009446
    22  C    0.002179
    24  C    0.445858
    27  N   -0.525813
    28  C    0.228163
    31  C    0.216858
    34  N   -0.366851
    35  S    1.252957
    36  O   -0.611634
    37  O   -0.605867
    38  C    0.083882
    39  C    0.027488
    40  C   -0.049330
    41  C   -0.016418
    42  C   -0.005126
    43  C   -0.059563
    49  O   -0.551402
    51  C    0.724043
    52  O   -0.721403
    53  O   -0.273718
    55  C   -0.038746
    58  C    0.196687
    61  C    0.024706
    65  C   -0.011012
    68  C   -0.024817
    72  C    0.017954
    75  C    0.025651
 Electronic spatial extent (au):  <R**2>=          14336.7855
 Charge=              0.0000 electrons
 Dipole moment (field-independent basis, Debye):
    X=             -2.6185    Y=             -1.9542    Z=             -6.3306  Tot=              7.1240
 Quadrupole moment (field-independent basis, Debye-Ang):
   XX=           -205.8701   YY=           -222.6439   ZZ=           -219.9723
   XY=            -12.4498   XZ=             -5.2574   YZ=             10.0602
 Traceless Quadrupole moment (field-independent basis, Debye-Ang):
   XX=             10.2921   YY=             -6.4818   ZZ=             -3.8102
   XY=            -12.4498   XZ=             -5.2574   YZ=             10.0602
 Octapole moment (field-independent basis, Debye-Ang**2):
  XXX=             13.6774  YYY=            -52.1380  ZZZ=             11.5034  XYY=              9.3867
  XXY=            -24.8626  XXZ=            -38.8374  XZZ=            -24.0078  YZZ=             13.1679
  YYZ=             18.3261  XYZ=            -19.2135
 Hexadecapole moment (field-independent basis, Debye-Ang**3):
 XXXX=          -9827.8641 YYYY=          -5440.6787 ZZZZ=          -3545.9521 XXXY=           -204.1422
 XXXZ=             -9.9018 YYYX=            -73.3783 YYYZ=             55.1249 ZZZX=           -104.3898
 ZZZY=             -5.3845 XXYY=          -2555.5777 XXZZ=          -2318.3631 YYZZ=          -1601.5723
 XXYZ=             46.3071 YYXZ=             50.1312 ZZXY=            -51.9024
 N-N= 4.990777279422D+03 E-N=-1.463387368898D+04  KE= 1.976422600153D+03
 No NMR shielding tensors so no spin-rotation constants.
 Leave Link  601 at Thu Feb  7 14:27:41 2019, MaxMem=   104857600 cpu:              35.2 elap:               1.6
 (Enter /home/xinyan/g16/l701.exe)
 ... and contract with generalized density number  0.
 Compute integral first derivatives.
 R6Disp: Adding Grimme-D3 dispersion energy 1st derivatives to the gradient.
 Leave Link  701 at Thu Feb  7 14:27:42 2019, MaxMem=   104857600 cpu:              23.6 elap:               1.1
 (Enter /home/xinyan/g16/l702.exe)
 L702 exits ... SP integral derivatives will be done elsewhere.
 Leave Link  702 at Thu Feb  7 14:27:42 2019, MaxMem=   104857600 cpu:               1.4 elap:               0.1
 (Enter /home/xinyan/g16/l703.exe)
 Integral derivatives from FoFJK, PRISM(SPDF).
 Compute integral first derivatives, UseDBF=F ICtDFT=           0.
 Calling FoFJK, ICntrl=      2127 FMM=T ISym2X=0 I1Cent= 0 IOpClX= 0 NMat=1 NMatS=1 NMatT=0.
 FoFJK:  IHMeth= 1 ICntrl=    2127 DoSepK=F KAlg= 0 I1Cent=           0 FoldK=F
 IRaf=         0 NMat=       1 IRICut=       1 DoRegI=T DoRafI=F ISym2E= 0 IDoP0=0 IntGTp=1.
 FoFCou: FMM=T IPFlag=           0 FMFlag=      100000 FMFlg1=        2001
         NFxFlg=           0 DoJE=F BraDBF=F KetDBF=F FulRan=T
         wScrn=  0.000000 ICntrl=      2127 IOpCl=  0 I1Cent=           0 NGrid=           0
         NMat0=    1 NMatS0=      1 NMatT0=    0 NMatD0=    1 NMtDS0=    0 NMtDT0=    0
 Symmetry not used in FoFCou.
 FMM levels:  10  Number of levels for PrismC:   9
 Leave Link  703 at Thu Feb  7 14:28:18 2019, MaxMem=   104857600 cpu:             836.7 elap:              35.9
 (Enter /home/xinyan/g16/l716.exe)
 Dipole        =-1.03021446D+00-7.68823112D-01-2.49063224D+00
 ***** Axes restored to original set *****
 -------------------------------------------------------------------
 Center     Atomic                   Forces (Hartrees/Bohr)
 Number     Number              X              Y              Z
 -------------------------------------------------------------------
      1        6           0.000007006   -0.000011321   -0.000011805
      2        6           0.000020952    0.000008435    0.000015576
      3        6           0.000023342    0.000014704    0.000001595
      4        6           0.000032645    0.000015285   -0.000019883
      5        6           0.000036090   -0.000000840   -0.000094570
      6        6          -0.000013967   -0.000004357    0.000032095
      7        1           0.000020090    0.000015681   -0.000024087
      8        1           0.000005828    0.000000347   -0.000034816
      9        1           0.000018555    0.000011188   -0.000019267
     10        1           0.000012479    0.000031843   -0.000019361
     11        1           0.000010695   -0.000012652   -0.000005080
     12        1           0.000005584   -0.000046460    0.000036035
     13        1           0.000007462   -0.000005450    0.000013864
     14        1           0.000003087   -0.000025925   -0.000009265
     15        1           0.000013663   -0.000014560    0.000001988
     16        1           0.000010186    0.000010853   -0.000019515
     17        7           0.000015579    0.000031068   -0.000015185
     18        6           0.000023420   -0.000014625   -0.000010102
     19        6           0.000021150    0.000011718    0.000006369
     20        6          -0.000003554   -0.000006697   -0.000013307
     21        1           0.000016223    0.000000397   -0.000011272
     22        6          -0.000008908    0.000002647    0.000025927
     23        1           0.000001163   -0.000003040   -0.000014077
     24        6           0.000028139   -0.000020265    0.000008279
     25        1           0.000017868    0.000003003   -0.000001631
     26        1           0.000016193    0.000012810    0.000017496
     27        7          -0.000000568    0.000040039    0.000002042
     28        6           0.000007028    0.000021920    0.000037197
     29        1           0.000010292    0.000031650    0.000042518
     30        1           0.000004339    0.000047314    0.000019151
     31        6           0.000002911   -0.000000579   -0.000004301
     32        1           0.000021689   -0.000013568    0.000008878
     33        1           0.000002416    0.000033087    0.000032005
     34        7           0.000007717   -0.000010374   -0.000039665
     35       16           0.000037246   -0.000053687    0.000112574
     36        8           0.000027910   -0.000016393   -0.000093653
     37        8          -0.000033753    0.000002721   -0.000041778
     38        6          -0.000025907    0.000046760    0.000017114
     39        6          -0.000028639    0.000046060    0.000013869
     40        6          -0.000071134    0.000035597    0.000037825
     41        6           0.000002450    0.000012695    0.000031348
     42        6          -0.000035039    0.000001912    0.000066887
     43        6          -0.000009907    0.000015629    0.000032871
     44        1          -0.000021859    0.000017794   -0.000003284
     45        1          -0.000028617    0.000059596    0.000019866
     46        1          -0.000028338    0.000031693    0.000048821
     47        1          -0.000001823   -0.000005248    0.000043214
     48        1          -0.000014041   -0.000011794    0.000014400
     49        8          -0.000146683   -0.000040703    0.000204246
     50        1          -0.000073745   -0.000068603   -0.000057091
     51        6           0.000086827    0.000110626    0.000026704
     52        8          -0.000229163   -0.000147667   -0.000228225
     53        8          -0.000165653   -0.000146907    0.000069632
     54        1           0.000175104    0.000206645    0.000024050
     55        6          -0.000017638    0.000035102   -0.000184024
     56        1           0.000022334    0.000194757    0.000175126
     57        1           0.000133860   -0.000115462    0.000005198
     58        6           0.000022043    0.000008830   -0.000041942
     59        1           0.000002294    0.000000529    0.000037334
     60        1           0.000009805    0.000021885   -0.000007941
     61        6          -0.000036370   -0.000004381    0.000029028
     62        1          -0.000009963    0.000008382   -0.000027630
     63        1          -0.000026533   -0.000031168   -0.000014652
     64        1          -0.000025704   -0.000013163   -0.000017084
     65        6           0.000032390    0.000072385    0.000152685
     66        1          -0.000129990   -0.000217608   -0.000247898
     67        1          -0.000055844    0.000074559    0.000018226
     68        6          -0.000093739   -0.000216218   -0.000301186
     69        1           0.000025589   -0.000112795   -0.000076142
     70        1           0.000173879    0.000156315    0.000188394
     71        1           0.000130196   -0.000253848   -0.000101170
     72        6           0.000002861    0.000039512    0.000024162
     73        1          -0.000007534    0.000052328    0.000038086
     74        1           0.000014727    0.000022141    0.000059395
     75        6          -0.000027240   -0.000027459    0.000024923
     76        1           0.000033547    0.000052115   -0.000009010
     77        1           0.000015002    0.000003262    0.000002910
 -------------------------------------------------------------------
 Cartesian Forces:  Max     0.000301186 RMS     0.000070193
 Z-matrix is all fixed cartesians, so copy forces.
 Leave Link  716 at Thu Feb  7 14:28:18 2019, MaxMem=   104857600 cpu:               2.4 elap:               0.1
 (Enter /home/xinyan/g16/l103.exe)

 GradGradGradGradGradGradGradGradGradGradGradGradGradGradGradGradGradGrad
 Berny optimization.
 Search for a local minimum.
 Step number   1 out of a maximum of    2
 All quantities printed in internal units (Hartrees-Bohrs-Radians)
 Second derivative matrix not updated -- first step.
 ITU=  0
     Eigenvalues ---    0.00000   0.00000   0.00000   0.00000   0.00000
     Eigenvalues ---    0.00000   0.00006   0.00012   0.00018   0.00021
     Eigenvalues ---    0.00037   0.00038   0.00084   0.00094   0.00115
     Eigenvalues ---    0.00136   0.00141   0.00204   0.00234   0.00294
     Eigenvalues ---    0.00392   0.00406   0.00450   0.00498   0.00590
     Eigenvalues ---    0.00608   0.00614   0.00692   0.00710   0.00848
     Eigenvalues ---    0.00965   0.01123   0.01162   0.01473   0.01655
     Eigenvalues ---    0.01678   0.01888   0.01932   0.02043   0.02158
     Eigenvalues ---    0.02295   0.02305   0.02443   0.02534   0.02875
     Eigenvalues ---    0.02970   0.03073   0.03110   0.03219   0.03449
     Eigenvalues ---    0.03544   0.03716   0.03900   0.04199   0.04320
     Eigenvalues ---    0.04367   0.04803   0.04843   0.04871   0.04925
     Eigenvalues ---    0.05025   0.05069   0.05112   0.05113   0.05162
     Eigenvalues ---    0.05186   0.05263   0.05372   0.05468   0.05598
     Eigenvalues ---    0.05645   0.05668   0.05708   0.05743   0.05791
     Eigenvalues ---    0.06017   0.06153   0.06287   0.06516   0.06567
     Eigenvalues ---    0.06834   0.06850   0.06971   0.07028   0.07089
     Eigenvalues ---    0.07150   0.07247   0.07267   0.07329   0.07383
     Eigenvalues ---    0.07646   0.07805   0.07862   0.07954   0.08085
     Eigenvalues ---    0.08467   0.08553   0.08821   0.09024   0.09716
     Eigenvalues ---    0.09765   0.10161   0.10463   0.11256   0.11518
     Eigenvalues ---    0.11840   0.12129   0.12609   0.12852   0.12899
     Eigenvalues ---    0.12951   0.13029   0.13359   0.13683   0.13935
     Eigenvalues ---    0.14129   0.14429   0.14651   0.15659   0.15769
     Eigenvalues ---    0.16032   0.16110   0.16879   0.16952   0.16972
     Eigenvalues ---    0.17254   0.17302   0.17770   0.17880   0.19573
     Eigenvalues ---    0.19696   0.20336   0.20626   0.21587   0.21701
     Eigenvalues ---    0.23070   0.23371   0.23832   0.24804   0.26384
     Eigenvalues ---    0.27462   0.28626   0.29528   0.30045   0.30654
     Eigenvalues ---    0.31429   0.32268   0.34024   0.34759   0.36308
     Eigenvalues ---    0.36706   0.39426   0.39996   0.41236   0.43090
     Eigenvalues ---    0.43539   0.44547   0.48122   0.49026   0.50144
     Eigenvalues ---    0.52954   0.56798   0.57608   0.60186   0.64839
     Eigenvalues ---    0.65377   0.66360   0.67427   0.68226   0.68770
     Eigenvalues ---    0.70490   0.77705   0.78174   0.78443   0.81209
     Eigenvalues ---    0.83011   0.83336   0.85551   0.86547   0.87293
     Eigenvalues ---    0.87978   0.88679   0.90623   0.91308   0.93962
     Eigenvalues ---    0.94436   0.94778   0.94944   0.95650   0.96343
     Eigenvalues ---    0.97889   0.97962   0.99575   1.00386   1.00618
     Eigenvalues ---    1.00787   1.03909   1.04287   1.04576   1.06128
     Eigenvalues ---    1.06335   1.06782   1.07212   1.08779   1.09120
     Eigenvalues ---    1.13074   1.15677   1.15738   1.16955   1.19837
     Eigenvalues ---    1.21192   1.24128   1.26135   1.27772   1.37130
     Eigenvalues ---    1.47238   1.53542   1.57432   1.58249   1.58852
     Eigenvalues ---    1.59574   1.67038   1.72952   1.84181   2.34206
 Eigenvalue     1 is   4.44D-16 Eigenvector:
                          Y71       Y70       Y57       Y68       Y56
   1                    0.13545   0.13545   0.13545   0.13545   0.13545
                          Y69       Y55       Y53       Y65       Y54
   1                    0.13545   0.13545   0.13545   0.13545   0.13545
 Eigenvalue     2 is   5.44D-08 Eigenvector:
                          X45       Y46       X46       X40       X52
   1                    0.15834  -0.15733   0.14128   0.13955   0.13838
                          Y47       Y73       X44       Y41       X41
   1                   -0.13523   0.13388   0.13332  -0.13282   0.13006
 Eigenvalue     3 is   6.75D-08 Eigenvector:
                          Y46       Z47       X54       Z46       X53
   1                    0.20095  -0.18761  -0.18300  -0.17461  -0.16495
                          Y47       Z42       Y41       Z41       Z69
   1                    0.16436  -0.16115   0.15935  -0.15401   0.14587
 Eigenvalue     4 is   1.60D-07 Eigenvector:
                          Z77       Z76       Z57       Z71       Z53
   1                    0.18664   0.18065  -0.17237  -0.16904  -0.16150
                          Z54       Z75       Y64       Z33       Z66
   1                   -0.16067   0.16062  -0.15461   0.14975  -0.14563
 Eigenvalue     5 is   2.52D-07 Eigenvector:
                          Z47       Y46       Y64       Y9        Y47
   1                    0.18179   0.17569   0.16108  -0.15840   0.14931
                          Z42       Z48       Y7        Y71       Y62
   1                    0.14559   0.14263  -0.14095  -0.14037   0.13897
 Eigenvalue     6 is   4.67D-07 Eigenvector:
                          Y69       Z54       Y48       Y59       Y71
   1                    0.25464  -0.24509  -0.23251  -0.23044   0.20164
                          Y66       Y45       Z53       Z70       Y68
   1                    0.18713   0.18591  -0.18236   0.18046   0.17408
 Eigenvalue     7 is   6.12D-05 Eigenvector:
                          X69       X45       X46       X70       Z70
   1                    0.27052  -0.23843  -0.22551   0.22288   0.21420
                          Z69       X68       X67       X40       X41
   1                    0.21150   0.20708   0.20159  -0.18339  -0.17641
 Quadratic step=3.506D+00 exceeds max=3.000D-01 adjusted using Lamda=-1.275D-03.
 Angle between NR and scaled steps=  21.36 degrees.
 Angle between quadratic step and forces=  64.45 degrees.
 Linear search not attempted -- first point.
 B after Tr=    -0.000722    0.000708    0.001000
         Rot=    1.000000   -0.000148    0.000074   -0.000116 Ang=  -0.02 deg.
 Variable       Old X    -DE/DX   Delta X   Delta X   Delta X     New X
                                 (Linear)    (Quad)   (Total)
    X1       -9.25730   0.00001   0.00000   0.00659   0.00588  -9.25142
    Y1        0.46863  -0.00001   0.00000  -0.00207  -0.00327   0.46536
    Z1       -0.81200  -0.00001   0.00000  -0.00912  -0.00935  -0.82134
    X2       -9.61617   0.00002   0.00000   0.00854   0.00862  -9.60755
    Y2       -1.93499   0.00001   0.00000   0.00046  -0.00036  -1.93534
    Z2       -2.38408   0.00002   0.00000  -0.01358  -0.01456  -2.39864
    X3       -7.10254   0.00002   0.00000   0.00998   0.01043  -7.09211
    Y3       -2.79655   0.00001   0.00000   0.00071   0.00082  -2.79573
    Z3       -3.54150   0.00000   0.00000  -0.01100  -0.01187  -3.55337
    X4       -5.21523   0.00003   0.00000   0.00646   0.00670  -5.20853
    Y4       -3.24942   0.00002   0.00000  -0.00247  -0.00255  -3.25197
    Z4       -1.41323  -0.00002   0.00000  -0.00862  -0.00935  -1.42258
    X5       -4.77241   0.00004   0.00000   0.00496   0.00440  -4.76801
    Y5       -0.80037  -0.00000   0.00000  -0.00394  -0.00438  -0.80475
    Z5        0.13341  -0.00009   0.00000  -0.00664  -0.00658   0.12683
    X6       -7.27822  -0.00001   0.00000   0.00407   0.00314  -7.27509
    Y6        0.10392  -0.00000   0.00000  -0.00558  -0.00694   0.09698
    Z6        1.26952   0.00003   0.00000  -0.00742  -0.00747   1.26205
    X7       -7.33990   0.00002   0.00000   0.01099   0.01200  -7.32790
    Y7       -4.51775   0.00002   0.00000   0.00223   0.00262  -4.51513
    Z7       -4.66613  -0.00002   0.00000  -0.01350  -0.01492  -4.68105
    X8      -10.36696   0.00001   0.00000   0.00579   0.00605 -10.36091
    Y8       -3.44962   0.00000   0.00000  -0.00110  -0.00245  -3.45207
    Z8       -1.18115  -0.00003   0.00000  -0.01729  -0.01884  -1.19999
    X9      -11.00011   0.00002   0.00000   0.01114   0.01137 -10.98874
    Y9       -1.61556   0.00001   0.00000   0.00348   0.00278  -1.61278
    Z9       -3.88760  -0.00002   0.00000  -0.01532  -0.01641  -3.90401
   X10       -8.64748   0.00001   0.00000   0.00789   0.00700  -8.64048
   Y10        2.00857   0.00003   0.00000   0.00032  -0.00037   2.00820
   Z10       -2.06150  -0.00002   0.00000  -0.00570  -0.00538  -2.06688
   X11      -11.05932   0.00001   0.00000   0.00561   0.00464 -11.05468
   Y11        1.04345  -0.00001   0.00000  -0.00375  -0.00562   1.03783
   Z11        0.02649  -0.00001   0.00000  -0.01010  -0.01042   0.01607
   X12       -5.95475   0.00001   0.00000   0.00390   0.00430  -5.95046
   Y12       -4.70438  -0.00005   0.00000  -0.00285  -0.00348  -4.70786
   Z12       -0.14343   0.00004   0.00000  -0.01025  -0.01152  -0.15495
   X13       -4.14224   0.00001   0.00000   0.00620   0.00551  -4.13673
   Y13        0.65180  -0.00001   0.00000  -0.00253  -0.00243   0.64938
   Z13       -1.20667   0.00001   0.00000  -0.00447  -0.00389  -1.21055
   X14       -7.95386   0.00000   0.00000   0.00258   0.00177  -7.95209
   Y14       -1.27834  -0.00003   0.00000  -0.00800  -0.00992  -1.28826
   Z14        2.65372  -0.00001   0.00000  -0.01050  -0.01106   2.64267
   X15       -6.93031   0.00001   0.00000   0.00336   0.00187  -6.92844
   Y15        1.88999  -0.00001   0.00000  -0.00732  -0.00889   1.88110
   Z15        2.25580   0.00000   0.00000  -0.00401  -0.00347   2.25234
   X16       -6.41953   0.00001   0.00000   0.01238   0.01267  -6.40686
   Y16       -1.29913   0.00001   0.00000   0.00200   0.00265  -1.29648
   Z16       -4.80631  -0.00002   0.00000  -0.00820  -0.00853  -4.81484
   X17       -2.71219   0.00002   0.00000   0.00788   0.00846  -2.70373
   Y17       -4.16365   0.00003   0.00000  -0.00285  -0.00210  -4.16576
   Z17       -2.24919  -0.00002   0.00000  -0.00386  -0.00449  -2.25368
   X18       -1.38288   0.00002   0.00000   0.00993   0.01046  -1.37242
   Y18       -2.83535  -0.00001   0.00000  -0.00592  -0.00434  -2.83969
   Z18       -4.00223  -0.00001   0.00000  -0.00463  -0.00468  -4.00691
   X19       -1.42784   0.00002   0.00000   0.00630   0.00700  -1.42084
   Y19       -5.70841   0.00001   0.00000   0.00194   0.00251  -5.70590
   Z19       -0.64666   0.00001   0.00000   0.00204   0.00114  -0.64553
   X20        1.18172  -0.00000   0.00000   0.01028   0.01085   1.19258
   Y20       -2.93807  -0.00001   0.00000  -0.00420  -0.00199  -2.94006
   Z20       -4.14757  -0.00001   0.00000   0.00033   0.00063  -4.14694
   X21       -2.47989   0.00002   0.00000   0.01125   0.01168  -2.46821
   Y21       -1.62764   0.00000   0.00000  -0.00955  -0.00787  -1.63551
   Z21       -5.23802  -0.00001   0.00000  -0.00938  -0.00923  -5.24724
   X22        1.13680  -0.00001   0.00000   0.00651   0.00725   1.14405
   Y22       -5.88419   0.00000   0.00000   0.00519   0.00636  -5.87783
   Z22       -0.65320   0.00003   0.00000   0.00825   0.00768  -0.64552
   X23       -2.56880   0.00000   0.00000   0.00442   0.00515  -2.56365
   Y23       -6.69245  -0.00000   0.00000   0.00386   0.00375  -6.68870
   Z23        0.74310  -0.00001   0.00000   0.00184   0.00049   0.74358
   X24        2.57137   0.00003   0.00000   0.00802   0.00863   2.58000
   Y24       -4.30678  -0.00002   0.00000   0.00272   0.00470  -4.30208
   Z24       -2.28449   0.00001   0.00000   0.00718   0.00729  -2.27720
   X25        2.13584   0.00002   0.00000   0.01197   0.01249   2.14834
   Y25       -1.82806   0.00000   0.00000  -0.00686  -0.00400  -1.83207
   Z25       -5.57416  -0.00000   0.00000  -0.00064   0.00014  -5.57403
   X26        2.02730   0.00002   0.00000   0.00493   0.00572   2.03302
   Y26       -7.04235   0.00001   0.00000   0.01000   0.01095  -7.03140
   Z26        0.77382   0.00002   0.00000   0.01316   0.01238   0.78621
   X27        5.06605  -0.00000   0.00000   0.00726   0.00780   5.07386
   Y27       -4.12066   0.00004   0.00000   0.00704   0.00955  -4.11111
   Z27       -2.08461   0.00000   0.00000   0.01248   0.01301  -2.07161
   X28        6.40642   0.00001   0.00000   0.00289   0.00331   6.40972
   Y28       -5.04478   0.00002   0.00000   0.01888   0.02103  -5.02375
   Z28        0.16828   0.00004   0.00000   0.01999   0.02044   0.18872
   X29        6.17549   0.00001   0.00000   0.00418   0.00504   6.18053
   Y29       -7.08834   0.00003   0.00000   0.01968   0.02171  -7.06664
   Z29        0.36846   0.00004   0.00000   0.02946   0.02928   0.39774
   X30        5.63259   0.00000   0.00000  -0.00175  -0.00181   5.63079
   Y30       -4.05942   0.00005   0.00000   0.02638   0.02785  -4.03156
   Z30        1.82691   0.00002   0.00000   0.01339   0.01402   1.84093
   X31        6.46863   0.00000   0.00000   0.00761   0.00785   6.47648
   Y31       -2.06441  -0.00000   0.00000   0.00335   0.00654  -2.05787
   Z31       -3.31702  -0.00000   0.00000   0.00682   0.00816  -3.30886
   X32        6.96538   0.00002   0.00000   0.01082   0.01148   6.97686
   Y32       -2.60765  -0.00001   0.00000  -0.00404  -0.00016  -2.60781
   Z32       -5.25478   0.00001   0.00000   0.00968   0.01094  -5.24384
   X33        5.28333   0.00000   0.00000   0.00656   0.00642   5.28975
   Y33       -0.37224   0.00003   0.00000   0.00263   0.00556  -0.36668
   Z33       -3.33283   0.00003   0.00000  -0.00130   0.00037  -3.33246
   X34       -2.68394   0.00001   0.00000   0.00296   0.00221  -2.68173
   Y34       -1.03636  -0.00001   0.00000  -0.00605  -0.00653  -1.04290
   Z34        1.90517  -0.00004   0.00000  -0.00500  -0.00471   1.90046
   X35       -2.82743   0.00004   0.00000  -0.00014  -0.00090  -2.82832
   Y35       -2.69944  -0.00005   0.00000  -0.00856  -0.00984  -2.70928
   Z35        4.49577   0.00011   0.00000  -0.00677  -0.00699   4.48878
   X36       -5.11118   0.00003   0.00000   0.00176   0.00138  -5.10980
   Y36       -4.26549  -0.00002   0.00000  -0.01084  -0.01262  -4.27811
   Z36        4.39652  -0.00009   0.00000  -0.01393  -0.01494   4.38158
   X37       -0.40181  -0.00003   0.00000   0.00046  -0.00005  -0.40186
   Y37       -3.98349   0.00000   0.00000  -0.00649  -0.00731  -3.99080
   Z37        4.86081  -0.00004   0.00000  -0.00384  -0.00408   4.85673
   X38       -1.33864  -0.00003   0.00000  -0.00719  -0.00907  -1.34771
   Y38        4.64725   0.00005   0.00000   0.01569   0.01595   4.66320
   Z38        0.46773   0.00002   0.00000   0.01561   0.01779   0.48552
   X39       -0.40225  -0.00003   0.00000  -0.01220  -0.01353  -0.41578
   Y39        3.76611   0.00005   0.00000   0.02072   0.02187   3.78798
   Z39       -1.85293   0.00001   0.00000   0.01164   0.01370  -1.83924
   X40       -1.83409  -0.00007   0.00000  -0.01906  -0.02012  -1.85422
   Y40        3.99242   0.00004   0.00000   0.02057   0.02204   4.01446
   Z40       -4.05174   0.00004   0.00000   0.01612   0.01803  -4.03371
   X41       -4.23248   0.00000   0.00000  -0.02155  -0.02287  -4.25535
   Y41        5.08569   0.00001   0.00000   0.01438   0.01527   5.10096
   Z41       -3.99802   0.00003   0.00000   0.02468   0.02657  -3.97145
   X42       -5.18722  -0.00004   0.00000  -0.01720  -0.01906  -5.20629
   Y42        5.95838   0.00000   0.00000   0.00814   0.00814   5.96652
   Z42       -1.70720   0.00007   0.00000   0.02883   0.03083  -1.67637
   X43       -3.74362  -0.00001   0.00000  -0.01004  -0.01218  -3.75580
   Y43        5.74070   0.00002   0.00000   0.00919   0.00887   5.74958
   Z43        0.48821   0.00003   0.00000   0.02418   0.02633   0.51454
   X44        1.40618  -0.00002   0.00000  -0.00999  -0.01110   1.39509
   Y44        2.80260   0.00002   0.00000   0.02502   0.02661   2.82921
   Z44       -1.87756  -0.00000   0.00000   0.00477   0.00681  -1.87074
   X45       -1.05677  -0.00003   0.00000  -0.02231  -0.02295  -1.07973
   Y45        3.31964   0.00006   0.00000   0.02578   0.02796   3.34760
   Z45       -5.83266   0.00002   0.00000   0.01275   0.01458  -5.81808
   X46       -5.33630  -0.00003   0.00000  -0.02685  -0.02796  -5.36426
   Y46        5.26737   0.00003   0.00000   0.01451   0.01566   5.28302
   Z46       -5.71980   0.00005   0.00000   0.02813   0.02990  -5.68990
   X47       -7.05000  -0.00000   0.00000  -0.01924  -0.02132  -7.07132
   Y47        6.81860  -0.00001   0.00000   0.00289   0.00243   6.82103
   Z47       -1.62498   0.00004   0.00000   0.03549   0.03747  -1.58751
   X48       -4.50454  -0.00001   0.00000  -0.00682  -0.00938  -4.51392
   Y48        6.44844  -0.00001   0.00000   0.00466   0.00364   6.45209
   Z48        2.26308   0.00001   0.00000   0.02728   0.02952   2.29260
   X49        1.04816  -0.00015   0.00000  -0.00140  -0.00327   1.04488
   Y49        2.39954  -0.00004   0.00000   0.01875   0.01852   2.41806
   Z49        3.97128   0.00020   0.00000   0.01426   0.01613   3.98741
   X50       -0.82311  -0.00007   0.00000   0.00328   0.00249  -0.82061
   Y50       -0.56304  -0.00007   0.00000  -0.00593  -0.00581  -0.56885
   Z50        1.35750  -0.00006   0.00000  -0.00314  -0.00243   1.35507
   X51        3.24069   0.00009   0.00000  -0.01535  -0.01673   3.22396
   Y51        1.05613   0.00011   0.00000   0.00469   0.00532   1.06145
   Z51        2.78765   0.00003   0.00000   0.00375   0.00553   2.79318
   X52        2.53888  -0.00023   0.00000  -0.03655  -0.03736   2.50152
   Y52       -0.03808  -0.00015   0.00000   0.00096   0.00204  -0.03603
   Z52        0.66773  -0.00023   0.00000   0.01208   0.01344   0.68117
   X53        3.91387  -0.00017   0.00000  -0.01156  -0.01283   3.90104
   Y53       -0.66171  -0.00015   0.00000   0.00758   0.00780  -0.65391
   Z53        4.72528   0.00007   0.00000   0.00511   0.00649   4.73176
   X54        2.60104   0.00018   0.00000  -0.01818  -0.01914   2.58189
   Y54       -1.95309   0.00021   0.00000   0.01476   0.01468  -1.93841
   Z54        4.69656   0.00002   0.00000   0.01814   0.01895   4.71550
   X55        5.50617  -0.00002   0.00000  -0.00341  -0.00520   5.50097
   Y55        2.91078   0.00004   0.00000  -0.01017  -0.00897   2.90182
   Z55        2.67268  -0.00018   0.00000  -0.01712  -0.01445   2.65823
   X56        5.36359   0.00002   0.00000   0.02141   0.01908   5.38267
   Y56        4.22165   0.00019   0.00000  -0.00610  -0.00540   4.21625
   Z56        4.27301   0.00018   0.00000  -0.01717  -0.01412   4.25889
   X57        7.19611   0.00013   0.00000  -0.00885  -0.01042   7.18569
   Y57        1.76945  -0.00012   0.00000  -0.02342  -0.02193   1.74752
   Z57        3.04408   0.00001   0.00000  -0.03025  -0.02767   3.01641
   X58        0.19137   0.00002   0.00000   0.00119  -0.00105   0.19032
   Y58        4.67445   0.00001   0.00000   0.01803   0.01791   4.69236
   Z58        2.92569  -0.00004   0.00000   0.01054   0.01296   2.93865
   X59       -1.03710   0.00000   0.00000   0.00860   0.00595  -1.03115
   Y59        5.51184   0.00000   0.00000   0.02491   0.02408   5.53592
   Z59        4.37294   0.00004   0.00000   0.01287   0.01535   4.38829
   X60        1.77196   0.00001   0.00000   0.00384   0.00132   1.77328
   Y60        6.00368   0.00002   0.00000   0.01320   0.01353   6.01721
   Z60        2.68449  -0.00001   0.00000   0.00108   0.00412   2.68861
   X61       -3.13130  -0.00004   0.00000  -0.00814  -0.00978  -3.14107
   Y61       -0.46455  -0.00000   0.00000  -0.01079  -0.01287  -0.47742
   Z61        6.98507   0.00003   0.00000  -0.00565  -0.00525   6.97982
   X62       -1.47593  -0.00001   0.00000  -0.01016  -0.01206  -1.48800
   Y62        0.76562   0.00001   0.00000  -0.00763  -0.00930   0.75632
   Z62        6.85432  -0.00003   0.00000  -0.00235  -0.00134   6.85298
   X63       -4.88158  -0.00003   0.00000  -0.00960  -0.01143  -4.89301
   Y63        0.58695  -0.00003   0.00000  -0.01385  -0.01626   0.57069
   Z63        6.69398  -0.00001   0.00000  -0.00808  -0.00763   6.68635
   X64       -3.18528  -0.00003   0.00000  -0.00946  -0.01112  -3.19640
   Y64       -1.50904  -0.00001   0.00000  -0.01197  -0.01459  -1.52363
   Z64        8.76236  -0.00002   0.00000  -0.00641  -0.00634   8.75602
   X65        5.89801   0.00003   0.00000  -0.01206  -0.01382   5.88418
   Y65        4.36708   0.00007   0.00000  -0.01779  -0.01577   4.35131
   Z65        0.21456   0.00015   0.00000  -0.02283  -0.01968   0.19488
   X66        6.07347  -0.00013   0.00000  -0.06356  -0.06478   6.00869
   Y66        3.02507  -0.00022   0.00000  -0.02190  -0.01939   3.00569
   Z66       -1.35238  -0.00025   0.00000  -0.02616  -0.02339  -1.37577
   X67        4.25236  -0.00006   0.00000   0.00423   0.00225   4.25461
   Y67        5.53556   0.00007   0.00000   0.01552   0.01729   5.55284
   Z67       -0.24266   0.00002   0.00000   0.00265   0.00592  -0.23674
   X68        8.24278  -0.00009   0.00000   0.02531   0.02315   8.26593
   Y68        6.04680  -0.00022   0.00000  -0.06697  -0.06442   5.98238
   Z68        0.34132  -0.00030   0.00000  -0.05885  -0.05486   0.28646
   X69        8.55532   0.00003   0.00000   0.01741   0.01528   8.57060
   Y69        7.06880  -0.00011   0.00000  -0.07101  -0.06787   7.00093
   Z69       -1.42926  -0.00008   0.00000  -0.06253  -0.05820  -1.48746
   X70        8.05777   0.00017   0.00000   0.08213   0.07943   8.13720
   Y70        7.44490   0.00016   0.00000  -0.06484  -0.06277   7.38213
   Z70        1.85567   0.00019   0.00000  -0.05250  -0.04812   1.80755
   X71        9.93686   0.00013   0.00000   0.00829   0.00635   9.94321
   Y71        4.92499  -0.00025   0.00000  -0.10461  -0.10178   4.82320
   Z71        0.74157  -0.00010   0.00000  -0.08983  -0.08594   0.65562
   X72        9.13212   0.00000   0.00000   0.00348   0.00379   9.13591
   Y72       -4.26783   0.00004   0.00000   0.01863   0.02156  -4.24627
   Z72       -0.34650   0.00002   0.00000   0.02287   0.02396  -0.32254
   X73       10.24215  -0.00001   0.00000  -0.00114  -0.00111  10.24104
   Y73       -4.15812   0.00005   0.00000   0.02886   0.03153  -4.12658
   Z73        1.38836   0.00004   0.00000   0.02518   0.02646   1.41483
   X74       10.03377   0.00001   0.00000   0.00796   0.00878  10.04254
   Y74       -5.62498   0.00002   0.00000   0.01250   0.01602  -5.60896
   Z74       -1.62397   0.00006   0.00000   0.03259   0.03341  -1.59057
   X75        8.79979  -0.00003   0.00000   0.00519   0.00510   8.80490
   Y75       -1.70274  -0.00003   0.00000   0.01154   0.01478  -1.68796
   Z75       -1.64013   0.00002   0.00000   0.00841   0.01021  -1.62992
   X76        8.36578   0.00003   0.00000   0.00375   0.00312   8.36890
   Y76       -0.27560   0.00005   0.00000   0.01958   0.02230  -0.25330
   Z76       -0.21137  -0.00001   0.00000  -0.00005   0.00211  -0.20926
   X77       10.45340   0.00002   0.00000   0.00682   0.00675  10.46015
   Y77       -1.09279   0.00000   0.00000   0.00545   0.00939  -1.08340
   Z77       -2.71338   0.00000   0.00000   0.00742   0.00964  -2.70374
         Item               Value     Threshold  Converged?
 Maximum Force            0.000301     0.000450     YES
 RMS     Force            0.000070     0.000300     YES
 Maximum Displacement     0.101782     0.001800     NO 
 RMS     Displacement     0.019721     0.001200     NO 
 Predicted change in Energy=-1.297680D-04
 GradGradGradGradGradGradGradGradGradGradGradGradGradGradGradGradGradGrad

 Leave Link  103 at Thu Feb  7 14:28:19 2019, MaxMem=   104857600 cpu:              31.1 elap:               1.4
 (Enter /home/xinyan/g16/l9999.exe)
 1\1\GINC-TSE4\Force\RM062X\6-31G(d)\C27H41N3O5S1\STEVETSE\07-Feb-2019\
 0\\#p M062X/6-31G* em=gd3 force int=ultrafine\\Title\\0,1\C,-4.89875,0
 .24799,-0.42969\C,-5.08866,-1.02395,-1.2616\C,-3.7585,-1.47987,-1.8740
 8\C,-2.75978,-1.71952,-0.74785\C,-2.52545,-0.42354,0.0706\C,-3.85147,0
 .05499,0.6718\H,-3.88411,-2.39069,-2.46921\H,-5.48596,-1.82546,-0.6250
 4\H,-5.82101,-0.85492,-2.05723\H,-4.57605,1.06289,-1.0909\H,-5.85234,0
 .55217,0.01402\H,-3.15112,-2.48945,-0.0759\H,-2.19198,0.34492,-0.63854
 \H,-4.209,-0.67647,1.40429\H,-3.66736,1.00014,1.19372\H,-3.39707,-0.68
 747,-2.54339\N,-1.43523,-2.20331,-1.19022\C,-0.73179,-1.5004,-2.11789\
 C,-0.75558,-3.02076,-0.3422\C,0.62534,-1.55476,-2.1948\H,-1.3123,-0.86
 131,-2.77184\C,0.60157,-3.11378,-0.34566\H,-1.35935,-3.54149,0.39323\C
 ,1.36071,-2.27905,-1.2089\H,1.13024,-0.96737,-2.94972\H,1.0728,-3.7266
 5,0.40949\N,2.68084,-2.18056,-1.10313\C,3.39013,-2.66958,0.08905\H,3.2
 6793,-3.75099,0.19498\H,2.98064,-2.14815,0.96676\C,3.42305,-1.09244,-1
 .75529\H,3.68592,-1.37991,-2.78071\H,2.79582,-0.19698,-1.76366\N,-1.42
 028,-0.54842,1.00817\S,-1.49621,-1.42848,2.37906\O,-2.70472,-2.2572,2.
 32654\O,-0.21263,-2.10797,2.57223\C,-0.70838,2.45922,0.24751\C,-0.2128
 6,1.99294,-0.98053\C,-0.97056,2.1127,-2.14409\C,-2.23973,2.69123,-2.11
 566\C,-2.74496,3.15304,-0.90341\C,-1.98104,3.03785,0.25835\H,0.74412,1
 .48307,-0.99356\H,-0.55922,1.75668,-3.08651\H,-2.82385,2.78737,-3.0267
 9\H,-3.7307,3.60825,-0.8599\H,-2.3837,3.41237,1.19757\O,0.55466,1.2697
 8,2.10151\H,-0.43557,-0.29795,0.71836\C,1.7149,0.55888,1.47516\O,1.343
 52,-0.02015,0.35335\O,2.07113,-0.35016,2.50051\H,1.37641,-1.03353,2.48
 531\C,2.91374,1.54032,1.41432\H,2.83829,2.234,2.26118\H,3.80802,0.9363
 5,1.61086\C,0.10127,2.47361,1.54821\H,-0.54881,2.91674,2.31406\H,0.937
 68,3.17701,1.42057\C,-1.65701,-0.24583,3.69634\H,-0.78103,0.40515,3.62
 715\H,-2.58322,0.3106,3.5423\H,-1.68558,-0.79855,4.63684\C,3.12109,2.3
 1096,0.11354\H,3.21394,1.6008,-0.71565\H,2.25025,2.92929,-0.12841\C,4.
 36189,3.19983,0.18062\H,4.52728,3.74065,-0.75633\H,4.26399,3.93967,0.9
 8198\H,5.25836,2.60619,0.39242\C,4.83251,-2.25844,-0.18336\H,5.41991,-
 2.20038,0.73469\H,5.30964,-2.97661,-0.85937\C,4.65665,-0.90105,-0.8679
 2\H,4.42698,-0.14584,-0.11185\H,5.5317,-0.57828,-1.43586\\Version=ES64
 L-G16RevA.03\State=1-A\HF=-1991.3583489\RMSD=9.276e-09\RMSF=7.019e-05\
 Dipole=-0.9814928,-0.69982,-2.5303367\Quadrupole=7.7658394,-5.1664493,
 -2.5993901,-9.3297334,-3.9287755,7.2414479\PG=C01 [X(C27H41N3O5S1)]\\@


 WE ARE REACHING THE STAGE WHERE THE PROBLEMS WE MUST SOLVE ARE 
 GOING TO BECOME INSOLUBLE WITHOUT COMPUTERS.
 I DO NOT FEAR COMPUTERS.  I FEAR THE LACK OF THEM.

                                   -- ISSAC ASIMOV
 Job cpu time:       0 days  1 hours 18 minutes 39.3 seconds.
 Elapsed time:       0 days  0 hours  3 minutes 18.8 seconds.
 File lengths (MBytes):  RWF=    216 Int=      0 D2E=      0 Chk=     25 Scr=      1
 Normal termination of Gaussian 16 at Thu Feb  7 14:28:19 2019.
