 Entering Gaussian System, Link 0=g16
 Input=C27N3H41SO5-78.gjf
 Output=C27N3H41SO5-78.log
 Initial command:
 /home/xinyan/g16/l1.exe "/local/home/tmp/Gau-32024.inp" -scrdir="/local/home/tmp/"
 Entering Link 1 = /home/xinyan/g16/l1.exe PID=     32025.
  
 Copyright (c) 1988,1990,1992,1993,1995,1998,2003,2009,2016,
            Gaussian, Inc.  All Rights Reserved.
  
 This is part of the Gaussian(R) 16 program.  It is based on
 the Gaussian(R) 09 system (copyright 2009, Gaussian, Inc.),
 the Gaussian(R) 03 system (copyright 2003, Gaussian, Inc.),
 the Gaussian(R) 98 system (copyright 1998, Gaussian, Inc.),
 the Gaussian(R) 94 system (copyright 1995, Gaussian, Inc.),
 the Gaussian 92(TM) system (copyright 1992, Gaussian, Inc.),
 the Gaussian 90(TM) system (copyright 1990, Gaussian, Inc.),
 the Gaussian 88(TM) system (copyright 1988, Gaussian, Inc.),
 the Gaussian 86(TM) system (copyright 1986, Carnegie Mellon
 University), and the Gaussian 82(TM) system (copyright 1983,
 Carnegie Mellon University). Gaussian is a federally registered
 trademark of Gaussian, Inc.
  
 This software contains proprietary and confidential information,
 including trade secrets, belonging to Gaussian, Inc.
  
 This software is provided under written license and may be
 used, copied, transmitted, or stored only in accord with that
 written license.
  
 The following legend is applicable only to US Government
 contracts under FAR:
  
                    RESTRICTED RIGHTS LEGEND
  
 Use, reproduction and disclosure by the US Government is
 subject to restrictions as set forth in subparagraphs (a)
 and (c) of the Commercial Computer Software - Restricted
 Rights clause in FAR 52.227-19.
  
 Gaussian, Inc.
 340 Quinnipiac St., Bldg. 40, Wallingford CT 06492
  
  
 ---------------------------------------------------------------
 Warning -- This program may not be used in any manner that
 competes with the business of Gaussian, Inc. or will provide
 assistance to any competitor of Gaussian, Inc.  The licensee
 of this program is prohibited from giving any competitor of
 Gaussian, Inc. access to this program.  By using this program,
 the user acknowledges that Gaussian, Inc. is engaged in the
 business of creating and licensing software in the field of
 computational chemistry and represents and warrants to the
 licensee that it is not a competitor of Gaussian, Inc. and that
 it will not use this program in any manner prohibited above.
 ---------------------------------------------------------------
  

 Cite this work as:
 Gaussian 16, Revision A.03,
 M. J. Frisch, G. W. Trucks, H. B. Schlegel, G. E. Scuseria, 
 M. A. Robb, J. R. Cheeseman, G. Scalmani, V. Barone, 
 G. A. Petersson, H. Nakatsuji, X. Li, M. Caricato, A. V. Marenich, 
 J. Bloino, B. G. Janesko, R. Gomperts, B. Mennucci, H. P. Hratchian, 
 J. V. Ortiz, A. F. Izmaylov, J. L. Sonnenberg, D. Williams-Young, 
 F. Ding, F. Lipparini, F. Egidi, J. Goings, B. Peng, A. Petrone, 
 T. Henderson, D. Ranasinghe, V. G. Zakrzewski, J. Gao, N. Rega, 
 G. Zheng, W. Liang, M. Hada, M. Ehara, K. Toyota, R. Fukuda, 
 J. Hasegawa, M. Ishida, T. Nakajima, Y. Honda, O. Kitao, H. Nakai, 
 T. Vreven, K. Throssell, J. A. Montgomery, Jr., J. E. Peralta, 
 F. Ogliaro, M. J. Bearpark, J. J. Heyd, E. N. Brothers, K. N. Kudin, 
 V. N. Staroverov, T. A. Keith, R. Kobayashi, J. Normand, 
 K. Raghavachari, A. P. Rendell, J. C. Burant, S. S. Iyengar, 
 J. Tomasi, M. Cossi, J. M. Millam, M. Klene, C. Adamo, R. Cammi, 
 J. W. Ochterski, R. L. Martin, K. Morokuma, O. Farkas, 
 J. B. Foresman, and D. J. Fox, Gaussian, Inc., Wallingford CT, 2016.
 
 ******************************************
 Gaussian 16:  ES64L-G16RevA.03 25-Dec-2016
                 7-Feb-2019 
 ******************************************
 %nproc=24
 Will use up to   24 processors via shared memory.
 ------------------------------------------
 #p M062X/6-31G* em=gd3 force int=ultrafine
 ------------------------------------------
 1/10=7,30=1,38=1/1,3;
 2/12=2,17=6,18=5,40=1/2;
 3/5=1,6=6,7=1,11=2,25=1,30=1,71=1,74=-55,75=-5,124=31/1,2,3;
 4//1;
 5/5=2,38=5/2;
 6/7=2,8=2,9=2,10=2,28=1/1;
 7/29=1/1,2,3,16;
 1/10=7,30=1/3;
 99//99;
 Leave Link    1 at Thu Feb  7 12:53:19 2019, MaxMem=           0 cpu:               2.5 elap:               0.1
 (Enter /home/xinyan/g16/l101.exe)
 -----
 Title
 -----
 Symbolic Z-matrix:
 Charge =  0 Multiplicity = 1
 C                    -4.93509   0.24203  -0.43063 
 C                    -5.11288  -1.03888  -1.25154 
 C                    -3.7771   -1.49089  -1.85382 
 C                    -2.77871  -1.71289  -0.72326 
 C                    -2.5604   -0.40936   0.08531 
 C                    -3.89182   0.065     0.67762 
 H                    -3.89288  -2.40783  -2.44143 
 H                    -5.50808  -1.83705  -0.60952 
 H                    -5.84241  -0.88235  -2.05233 
 H                    -4.61461   1.05331  -1.09778 
 H                    -5.89285   0.54368   0.00569 
 H                    -3.16346  -2.48233  -0.04662 
 H                    -2.23014   0.35646  -0.62811 
 H                    -4.24779  -0.66205   1.4149 
 H                    -3.7159    1.0156    1.19271 
 H                    -3.41912  -0.70181  -2.52879 
 N                    -1.45021  -2.18727  -1.16343 
 C                    -0.75441  -1.48847  -2.10023 
 C                    -0.76422  -3.00365  -0.31996 
 C                     0.60129  -1.5495   -2.19362 
 H                    -1.33943  -0.84748  -2.74802 
 C                     0.59207  -3.10509  -0.34169 
 H                    -1.36089  -3.51852   0.42522 
 C                     1.34595  -2.28075  -1.22011 
 H                     1.10003  -0.96452  -2.95464 
 H                     1.06931  -3.71824   0.40943 
 N                     2.6686   -2.19917  -1.13817 
 C                     3.38999  -2.71263   0.03627 
 H                     3.2633   -3.79523   0.1244 
 H                     2.9942   -2.20389   0.92743 
 C                     3.41433  -1.10937  -1.78608 
 H                     3.67831  -1.39425  -2.8121 
 H                     2.79271  -0.21008  -1.78692 
 N                    -1.45724  -0.51362   1.02891 
 S                    -1.50857  -1.39422   2.4052 
 O                    -2.73394  -2.19772   2.37808 
 O                    -0.23357  -2.09635   2.5647 
 C                    -0.68338   2.42779   0.20946 
 C                    -0.18308   1.93776  -1.00701 
 C                    -0.93047   2.04912  -2.1785 
 C                    -2.19228   2.64339  -2.16977 
 C                    -2.70103   3.13103  -0.9687 
 C                    -1.94881   3.02304   0.20126 
 H                     0.76912   1.41714  -1.00064 
 H                    -0.51586   1.67348  -3.11202 
 H                    -2.76759   2.73264  -3.08718 
 H                    -3.68066   3.60029  -0.94098 
 H                    -2.35527   3.41506   1.13155 
 O                     0.57207   1.23064   2.06198 
 H                    -0.48736  -0.26131   0.73428 
 C                     1.76624   0.5413    1.45535 
 O                     1.43354  -0.02695   0.32092 
 O                     2.10207  -0.37442   2.48334 
 H                     1.40568  -1.0552    2.44723 
 C                     2.94564   1.54623   1.44369 
 H                     2.83106   2.22712   2.29726 
 H                     3.85036   0.96225   1.65462 
 C                     0.11109   2.43686   1.52029 
 H                    -0.55538   2.86153   2.2831 
 H                     0.9394    3.1534    1.41285 
 C                    -1.6107   -0.20679   3.72368 
 H                    -0.72271   0.42492   3.63038 
 H                    -2.5296    0.36775   3.59519 
 H                    -1.62367  -0.75963   4.66452 
 C                     3.16273   2.34024   0.15816 
 H                     3.37284   1.64773  -0.66566 
 H                     2.2545    2.87585  -0.13766 
 C                     4.30815   3.34051   0.30794 
 H                     4.49177   3.89469  -0.61767 
 H                     4.08326   4.06867   1.09537 
 H                     5.23781   2.8332    0.58985 
 C                     4.83052  -2.30086  -0.24349 
 H                     5.4283   -2.26405   0.66891 
 H                     5.2983   -3.00494  -0.94073 
 C                     4.64611  -0.92913  -0.89488 
 H                     4.40435  -0.19696  -0.11975 
 H                     5.51858  -0.58403  -1.45361 
 
 ITRead=  0  0  0  0  0  0  0  0  0  0  0  0  0  0  0  0  0  0  0  0
 ITRead=  0  0  0  0  0  0  0  0  0  0  0  0  0  0  0  0  0  0  0  0
 ITRead=  0  0  0  0  0  0  0  0  0  0  0  0  0  0  0  0  0  0  0  0
 ITRead=  0  0  0  0  0  0  0  0  0  0  0  0  0  0  0  0  0
 MicOpt= -1 -1 -1 -1 -1 -1 -1 -1 -1 -1 -1 -1 -1 -1 -1 -1 -1 -1 -1 -1
 MicOpt= -1 -1 -1 -1 -1 -1 -1 -1 -1 -1 -1 -1 -1 -1 -1 -1 -1 -1 -1 -1
 MicOpt= -1 -1 -1 -1 -1 -1 -1 -1 -1 -1 -1 -1 -1 -1 -1 -1 -1 -1 -1 -1
 MicOpt= -1 -1 -1 -1 -1 -1 -1 -1 -1 -1 -1 -1 -1 -1 -1 -1 -1
 NAtoms=     77 NQM=       77 NQMF=       0 NMMI=      0 NMMIF=      0
                NMic=       0 NMicF=      0.
                    Isotopes and Nuclear Properties:
 (Nuclear quadrupole moments (NQMom) in fm**2, nuclear magnetic moments (NMagM)
  in nuclear magnetons)

  Atom         1           2           3           4           5           6           7           8           9          10
 IAtWgt=          12          12          12          12          12          12           1           1           1           1
 AtmWgt=  12.0000000  12.0000000  12.0000000  12.0000000  12.0000000  12.0000000   1.0078250   1.0078250   1.0078250   1.0078250
 NucSpn=           0           0           0           0           0           0           1           1           1           1
 AtZEff=  -0.0000000  -0.0000000  -0.0000000  -0.0000000  -0.0000000  -0.0000000  -0.0000000  -0.0000000  -0.0000000  -0.0000000
 NQMom=    0.0000000   0.0000000   0.0000000   0.0000000   0.0000000   0.0000000   0.0000000   0.0000000   0.0000000   0.0000000
 NMagM=    0.0000000   0.0000000   0.0000000   0.0000000   0.0000000   0.0000000   2.7928460   2.7928460   2.7928460   2.7928460
 AtZNuc=   6.0000000   6.0000000   6.0000000   6.0000000   6.0000000   6.0000000   1.0000000   1.0000000   1.0000000   1.0000000

  Atom        11          12          13          14          15          16          17          18          19          20
 IAtWgt=           1           1           1           1           1           1          14          12          12          12
 AtmWgt=   1.0078250   1.0078250   1.0078250   1.0078250   1.0078250   1.0078250  14.0030740  12.0000000  12.0000000  12.0000000
 NucSpn=           1           1           1           1           1           1           2           0           0           0
 AtZEff=  -0.0000000  -0.0000000  -0.0000000  -0.0000000  -0.0000000  -0.0000000  -0.0000000  -0.0000000  -0.0000000  -0.0000000
 NQMom=    0.0000000   0.0000000   0.0000000   0.0000000   0.0000000   0.0000000   2.0440000   0.0000000   0.0000000   0.0000000
 NMagM=    2.7928460   2.7928460   2.7928460   2.7928460   2.7928460   2.7928460   0.4037610   0.0000000   0.0000000   0.0000000
 AtZNuc=   1.0000000   1.0000000   1.0000000   1.0000000   1.0000000   1.0000000   7.0000000   6.0000000   6.0000000   6.0000000

  Atom        21          22          23          24          25          26          27          28          29          30
 IAtWgt=           1          12           1          12           1           1          14          12           1           1
 AtmWgt=   1.0078250  12.0000000   1.0078250  12.0000000   1.0078250   1.0078250  14.0030740  12.0000000   1.0078250   1.0078250
 NucSpn=           1           0           1           0           1           1           2           0           1           1
 AtZEff=  -0.0000000  -0.0000000  -0.0000000  -0.0000000  -0.0000000  -0.0000000  -0.0000000  -0.0000000  -0.0000000  -0.0000000
 NQMom=    0.0000000   0.0000000   0.0000000   0.0000000   0.0000000   0.0000000   2.0440000   0.0000000   0.0000000   0.0000000
 NMagM=    2.7928460   0.0000000   2.7928460   0.0000000   2.7928460   2.7928460   0.4037610   0.0000000   2.7928460   2.7928460
 AtZNuc=   1.0000000   6.0000000   1.0000000   6.0000000   1.0000000   1.0000000   7.0000000   6.0000000   1.0000000   1.0000000

  Atom        31          32          33          34          35          36          37          38          39          40
 IAtWgt=          12           1           1          14          32          16          16          12          12          12
 AtmWgt=  12.0000000   1.0078250   1.0078250  14.0030740  31.9720718  15.9949146  15.9949146  12.0000000  12.0000000  12.0000000
 NucSpn=           0           1           1           2           0           0           0           0           0           0
 AtZEff=  -0.0000000  -0.0000000  -0.0000000  -0.0000000  -0.0000000  -0.0000000  -0.0000000  -0.0000000  -0.0000000  -0.0000000
 NQMom=    0.0000000   0.0000000   0.0000000   2.0440000   0.0000000   0.0000000   0.0000000   0.0000000   0.0000000   0.0000000
 NMagM=    0.0000000   2.7928460   2.7928460   0.4037610   0.0000000   0.0000000   0.0000000   0.0000000   0.0000000   0.0000000
 AtZNuc=   6.0000000   1.0000000   1.0000000   7.0000000  16.0000000   8.0000000   8.0000000   6.0000000   6.0000000   6.0000000

  Atom        41          42          43          44          45          46          47          48          49          50
 IAtWgt=          12          12          12           1           1           1           1           1          16           1
 AtmWgt=  12.0000000  12.0000000  12.0000000   1.0078250   1.0078250   1.0078250   1.0078250   1.0078250  15.9949146   1.0078250
 NucSpn=           0           0           0           1           1           1           1           1           0           1
 AtZEff=  -0.0000000  -0.0000000  -0.0000000  -0.0000000  -0.0000000  -0.0000000  -0.0000000  -0.0000000  -0.0000000  -0.0000000
 NQMom=    0.0000000   0.0000000   0.0000000   0.0000000   0.0000000   0.0000000   0.0000000   0.0000000   0.0000000   0.0000000
 NMagM=    0.0000000   0.0000000   0.0000000   2.7928460   2.7928460   2.7928460   2.7928460   2.7928460   0.0000000   2.7928460
 AtZNuc=   6.0000000   6.0000000   6.0000000   1.0000000   1.0000000   1.0000000   1.0000000   1.0000000   8.0000000   1.0000000

  Atom        51          52          53          54          55          56          57          58          59          60
 IAtWgt=          12          16          16           1          12           1           1          12           1           1
 AtmWgt=  12.0000000  15.9949146  15.9949146   1.0078250  12.0000000   1.0078250   1.0078250  12.0000000   1.0078250   1.0078250
 NucSpn=           0           0           0           1           0           1           1           0           1           1
 AtZEff=  -0.0000000  -0.0000000  -0.0000000  -0.0000000  -0.0000000  -0.0000000  -0.0000000  -0.0000000  -0.0000000  -0.0000000
 NQMom=    0.0000000   0.0000000   0.0000000   0.0000000   0.0000000   0.0000000   0.0000000   0.0000000   0.0000000   0.0000000
 NMagM=    0.0000000   0.0000000   0.0000000   2.7928460   0.0000000   2.7928460   2.7928460   0.0000000   2.7928460   2.7928460
 AtZNuc=   6.0000000   8.0000000   8.0000000   1.0000000   6.0000000   1.0000000   1.0000000   6.0000000   1.0000000   1.0000000

  Atom        61          62          63          64          65          66          67          68          69          70
 IAtWgt=          12           1           1           1          12           1           1          12           1           1
 AtmWgt=  12.0000000   1.0078250   1.0078250   1.0078250  12.0000000   1.0078250   1.0078250  12.0000000   1.0078250   1.0078250
 NucSpn=           0           1           1           1           0           1           1           0           1           1
 AtZEff=  -0.0000000  -0.0000000  -0.0000000  -0.0000000  -0.0000000  -0.0000000  -0.0000000  -0.0000000  -0.0000000  -0.0000000
 NQMom=    0.0000000   0.0000000   0.0000000   0.0000000   0.0000000   0.0000000   0.0000000   0.0000000   0.0000000   0.0000000
 NMagM=    0.0000000   2.7928460   2.7928460   2.7928460   0.0000000   2.7928460   2.7928460   0.0000000   2.7928460   2.7928460
 AtZNuc=   6.0000000   1.0000000   1.0000000   1.0000000   6.0000000   1.0000000   1.0000000   6.0000000   1.0000000   1.0000000

  Atom        71          72          73          74          75          76          77
 IAtWgt=           1          12           1           1          12           1           1
 AtmWgt=   1.0078250  12.0000000   1.0078250   1.0078250  12.0000000   1.0078250   1.0078250
 NucSpn=           1           0           1           1           0           1           1
 AtZEff=  -0.0000000  -0.0000000  -0.0000000  -0.0000000  -0.0000000  -0.0000000  -0.0000000
 NQMom=    0.0000000   0.0000000   0.0000000   0.0000000   0.0000000   0.0000000   0.0000000
 NMagM=    2.7928460   0.0000000   2.7928460   2.7928460   0.0000000   2.7928460   2.7928460
 AtZNuc=   1.0000000   6.0000000   1.0000000   1.0000000   6.0000000   1.0000000   1.0000000
 Leave Link  101 at Thu Feb  7 12:53:19 2019, MaxMem=   104857600 cpu:               5.7 elap:               0.3
 (Enter /home/xinyan/g16/l103.exe)

 GradGradGradGradGradGradGradGradGradGradGradGradGradGradGradGradGradGrad
 Berny optimization.
 Initialization pass.
 Trust Radius=3.00D-01 FncErr=1.00D-07 GrdErr=1.00D-07 EigMax=2.50D+02 EigMin=1.00D-04
 Number of steps in this run=      2 maximum allowed number of steps=      2.
 GradGradGradGradGradGradGradGradGradGradGradGradGradGradGradGradGradGrad

 Leave Link  103 at Thu Feb  7 12:53:19 2019, MaxMem=   104857600 cpu:               1.6 elap:               0.1
 (Enter /home/xinyan/g16/l202.exe)
 Stoichiometry    C27H41N3O5S
 Framework group  C1[X(C27H41N3O5S)]
 Deg. of freedom   225
 Full point group                 C1      NOp   1
 Largest Abelian subgroup         C1      NOp   1
 Largest concise Abelian subgroup C1      NOp   1
                         Standard orientation:                         
 ---------------------------------------------------------------------
 Center     Atomic      Atomic             Coordinates (Angstroms)
 Number     Number       Type             X           Y           Z
 ---------------------------------------------------------------------
      1          6           0       -4.820303    0.466374   -0.524639
      2          6           0       -5.020541   -0.847137   -1.286758
      3          6           0       -3.699269   -1.331591   -1.895779
      4          6           0       -2.679385   -1.511035   -0.776910
      5          6           0       -2.438778   -0.175670   -0.028884
      6          6           0       -3.755787    0.330668    0.569143
      7          1           0       -3.831120   -2.271931   -2.441533
      8          1           0       -5.406464   -1.615225   -0.603712
      9          1           0       -5.765294   -0.720626   -2.078793
     10          1           0       -4.509529    1.246908   -1.231858
     11          1           0       -5.767675    0.791497   -0.082539
     12          1           0       -3.054029   -2.249011   -0.060709
     13          1           0       -2.119369    0.557433   -0.780587
     14          1           0       -4.100241   -0.362549    1.343547
     15          1           0       -3.565111    1.301235    1.039831
     16          1           0       -3.351263   -0.573775   -2.610613
     17          7           0       -1.362234   -2.010937   -1.222905
     18          6           0       -0.682169   -1.356263   -2.202173
     19          6           0       -0.663230   -2.794650   -0.359373
     20          6           0        0.671079   -1.428662   -2.319850
     21          1           0       -1.277106   -0.740054   -2.864808
     22          6           0        0.691861   -2.904392   -0.403765
     23          1           0       -1.247184   -3.274219    0.418709
     24          6           0        1.431753   -2.122141   -1.331200
     25          1           0        1.157132   -0.879178   -3.114780
     26          1           0        1.181249   -3.487819    0.363049
     27          7           0        2.756150   -2.044457   -1.279133
     28          6           0        3.498617   -2.511711   -0.098552
     29          1           0        3.368679   -3.588895    0.037938
     30          1           0        3.123210   -1.963531    0.777918
     31          6           0        3.493769   -0.987186   -1.987413
     32          1           0        3.735725   -1.316692   -3.005471
     33          1           0        2.876458   -0.085325   -2.014040
     34          7           0       -1.317358   -0.245973    0.896150
     35         16           0       -1.345098   -1.067229    2.309315
     36          8           0       -2.574499   -1.864392    2.340703
     37          8           0       -0.070435   -1.768995    2.473059
     38          6           0       -0.546431    2.653804   -0.062607
     39          6           0       -0.072993    2.109971   -1.266904
     40          6           0       -0.843270    2.175760   -2.426959
     41          6           0       -2.101865    2.776812   -2.418344
     42          6           0       -2.584072    3.317652   -1.229161
     43          6           0       -1.808981    3.255139   -0.070873
     44          1           0        0.876704    1.584847   -1.257399
     45          1           0       -0.449279    1.758662   -3.351765
     46          1           0       -2.695090    2.830318   -3.327084
     47          1           0       -3.560747    3.793057   -1.201888
     48          1           0       -2.194813    3.688420    0.849849
     49          8           0        0.740434    1.529243    1.813690
     50          1           0       -0.352435   -0.011710    0.571837
     51          6           0        1.918932    0.808271    1.213212
     52          8           0        1.560833    0.194353    0.110761
     53          8           0        2.271099   -0.064951    2.272245
     54          1           0        1.570957   -0.742801    2.278919
     55          6           0        3.102532    1.805292    1.135454
     56          1           0        3.008321    2.522324    1.961475
     57          1           0        4.008579    1.225786    1.352927
     58          6           0        0.274280    2.713974    1.230587
     59          1           0       -0.374723    3.174220    1.987803
     60          1           0        1.103593    3.420748    1.076378
     61          6           0       -1.415147    0.175492    3.577994
     62          1           0       -0.526277    0.797783    3.440321
     63          1           0       -2.333757    0.749134    3.443553
     64          1           0       -1.411766   -0.336947    4.541516
     65          6           0        3.297418    2.542965   -0.186674
     66          1           0        3.487683    1.815057   -0.984386
     67          1           0        2.385929    3.070571   -0.486822
     68          6           0        4.450271    3.542351   -0.102296
     69          1           0        4.617817    4.055833   -1.054058
     70          1           0        4.244664    4.304418    0.657847
     71          1           0        5.383038    3.042313    0.182330
     72          6           0        4.935132   -2.120098   -0.424144
     73          1           0        5.551310   -2.047994    0.473796
     74          1           0        5.385504   -2.855628   -1.100051
     75          6           0        4.744054   -0.776175   -1.129353
     76          1           0        4.521352   -0.010529   -0.381330
     77          1           0        5.606708   -0.459849   -1.719474
 ---------------------------------------------------------------------
 Rotational constants (GHZ):           0.1537895           0.1004528           0.0905959
 Leave Link  202 at Thu Feb  7 12:53:19 2019, MaxMem=   104857600 cpu:               2.4 elap:               0.1
 (Enter /home/xinyan/g16/l301.exe)
 Standard basis: 6-31G(d) (6D, 7F)
 Ernie: Thresh=  0.10000D-02 Tol=  0.10000D-05 Strict=F.
 There are   626 symmetry adapted cartesian basis functions of A   symmetry.
 There are   626 symmetry adapted basis functions of A   symmetry.
   626 basis functions,  1196 primitive gaussians,   626 cartesian basis functions
   140 alpha electrons      140 beta electrons
       nuclear repulsion energy      4985.1406271600 Hartrees.
 IExCor= 4336 DFT=T Ex+Corr=M062X ExCW=0 ScaHFX=  0.540000
 ScaDFX=  1.000000  1.000000  1.000000  1.000000 ScalE2=  1.000000  1.000000
 IRadAn=      5 IRanWt=     -1 IRanGd=            0 ICorTp=0 IEmpDi=131
 NAtoms=   77 NActive=   77 NUniq=   77 SFac= 1.00D+00 NAtFMM=   60 NAOKFM=T Big=T
 Integral buffers will be    131072 words long.
 Raffenetti 2 integral format.
 Two-electron integral symmetry is turned on.
 R6Disp:  Grimme-D3 Dispersion energy=       -0.0108004810 Hartrees.
 Nuclear repulsion after empirical dispersion term =     4985.1298266789 Hartrees.
 Leave Link  301 at Thu Feb  7 12:53:19 2019, MaxMem=   104857600 cpu:               3.0 elap:               0.1
 (Enter /home/xinyan/g16/l302.exe)
 NPDir=0 NMtPBC=     1 NCelOv=     1 NCel=       1 NClECP=     1 NCelD=      1
         NCelK=      1 NCelE2=     1 NClLst=     1 CellRange=     0.0.
 One-electron integrals computed using PRISM.
 One-electron integral symmetry used in STVInt
 PrsmSu:  requested number of processors reduced to:  23 ShMem   1 Linda.
 NBasis=   626 RedAO= T EigKep=  4.41D-04  NBF=   626
 NBsUse=   626 1.00D-06 EigRej= -1.00D+00 NBFU=   626
 Precomputing XC quadrature grid using
 IXCGrd= 4 IRadAn=           5 IRanWt=          -1 IRanGd=           0 AccXCQ= 0.00D+00.
 Generated NRdTot=       0 NPtTot=           0 NUsed=           0 NTot=          32
 NSgBfM=   621   621   621   621   621 MxSgAt=    77 MxSgA2=    77.
 Leave Link  302 at Thu Feb  7 12:53:23 2019, MaxMem=   104857600 cpu:              78.6 elap:               3.4
 (Enter /home/xinyan/g16/l303.exe)
 DipDrv:  MaxL=1.
 Leave Link  303 at Thu Feb  7 12:53:23 2019, MaxMem=   104857600 cpu:               6.2 elap:               0.3
 (Enter /home/xinyan/g16/l401.exe)
 ExpMin= 1.17D-01 ExpMax= 2.19D+04 ExpMxC= 3.30D+03 IAcc=3 IRadAn=         5 AccDes= 0.00D+00
 Harris functional with IExCor= 1009 and IRadAn=       5 diagonalized for initial guess.
 HarFok:  IExCor= 1009 AccDes= 0.00D+00 IRadAn=         5 IDoV= 1 UseB2=F ITyADJ=14
 ICtDFT=  3500011 ScaDFX=  1.000000  1.000000  1.000000  1.000000
 FoFCou: FMM=F IPFlag=           0 FMFlag=      100000 FMFlg1=        2001
         NFxFlg=           0 DoJE=T BraDBF=F KetDBF=T FulRan=T
         wScrn=  0.000000 ICntrl=       500 IOpCl=  0 I1Cent=   200000004 NGrid=           0
         NMat0=    1 NMatS0=      1 NMatT0=    0 NMatD0=    1 NMtDS0=    0 NMtDT0=    0
 Petite list used in FoFCou.
 Harris En= -1990.53090956831    
 JPrj=0 DoOrth=F DoCkMO=F.
 Leave Link  401 at Thu Feb  7 12:53:27 2019, MaxMem=   104857600 cpu:             100.5 elap:               4.2
 (Enter /home/xinyan/g16/l502.exe)
 Integral symmetry usage will be decided dynamically.
 Closed shell SCF:
 Using DIIS extrapolation, IDIIS=  1040.
 NGot=   104857600 LenX=   104051656 LenY=   103659154
 Requested convergence on RMS density matrix=1.00D-08 within 128 cycles.
 Requested convergence on MAX density matrix=1.00D-06.
 Requested convergence on             energy=1.00D-06.
 No special actions if energy rises.
 Fock matrices will be formed incrementally for  20 cycles.
 Integral accuracy reduced to 1.0D-05 until final iterations.

 Cycle   1  Pass 0  IDiag  1:
 FoFJK:  IHMeth= 1 ICntrl=       0 DoSepK=F KAlg= 0 I1Cent=           0 FoldK=F
 IRaf= 990000000 NMat=       1 IRICut=       1 DoRegI=T DoRafI=F ISym2E= 0 IDoP0=0 IntGTp=1.
 FoFCou: FMM=T IPFlag=           0 FMFlag=      100000 FMFlg1=        2001
         NFxFlg=           0 DoJE=F BraDBF=F KetDBF=F FulRan=T
         wScrn=  0.000000 ICntrl=         0 IOpCl=  0 I1Cent=           0 NGrid=           0
         NMat0=    1 NMatS0=      1 NMatT0=    0 NMatD0=    1 NMtDS0=    0 NMtDT0=    0
 Symmetry not used in FoFCou.
 FMM levels:  10  Number of levels for PrismC:   9
 E= -1990.29428361499    
 DIIS: error= 2.27D-02 at cycle   1 NSaved=   1.
 NSaved= 1 IEnMin= 1 EnMin= -1990.29428361499     IErMin= 1 ErrMin= 2.27D-02
 ErrMax= 2.27D-02  0.00D+00 EMaxC= 1.00D-01 BMatC= 1.25D+00 BMatP= 1.25D+00
 IDIUse=3 WtCom= 7.73D-01 WtEn= 2.27D-01
 Coeff-Com:  0.100D+01
 Coeff-En:   0.100D+01
 Coeff:      0.100D+01
 Gap=     0.366 Goal=   None    Shift=    0.000
 GapD=    0.366 DampG=1.000 DampE=0.500 DampFc=0.5000 IDamp=-1.
 Damping current iteration by 5.00D-01
 RMSDP=3.47D-03 MaxDP=3.48D-01              OVMax= 2.02D-01

 Cycle   2  Pass 0  IDiag  1:
 RMSU=  1.73D-03    CP:  9.88D-01
 E= -1990.80783714270     Delta-E=       -0.513553527710 Rises=F Damp=T
 DIIS: error= 7.03D-03 at cycle   2 NSaved=   2.
 NSaved= 2 IEnMin= 2 EnMin= -1990.80783714270     IErMin= 2 ErrMin= 7.03D-03
 ErrMax= 7.03D-03  0.00D+00 EMaxC= 1.00D-01 BMatC= 9.34D-02 BMatP= 1.25D+00
 IDIUse=3 WtCom= 9.30D-01 WtEn= 7.03D-02
 Coeff-Com: -0.265D-01 0.103D+01
 Coeff-En:   0.000D+00 0.100D+01
 Coeff:     -0.246D-01 0.102D+01
 Gap=     0.260 Goal=   None    Shift=    0.000
 RMSDP=8.66D-04 MaxDP=7.77D-02 DE=-5.14D-01 OVMax= 1.15D-01

 Cycle   3  Pass 0  IDiag  1:
 RMSU=  8.54D-04    CP:  9.81D-01  9.38D-01
 E= -1991.31527205851     Delta-E=       -0.507434915811 Rises=F Damp=F
 DIIS: error= 7.44D-03 at cycle   3 NSaved=   3.
 NSaved= 3 IEnMin= 3 EnMin= -1991.31527205851     IErMin= 2 ErrMin= 7.03D-03
 ErrMax= 7.44D-03  0.00D+00 EMaxC= 1.00D-01 BMatC= 5.09D-02 BMatP= 9.34D-02
 IDIUse=3 WtCom= 9.26D-01 WtEn= 7.44D-02
 Coeff-Com: -0.707D-01 0.443D+00 0.627D+00
 Coeff-En:   0.000D+00 0.000D+00 0.100D+01
 Coeff:     -0.655D-01 0.410D+00 0.655D+00
 Gap=     0.242 Goal=   None    Shift=    0.000
 RMSDP=5.20D-04 MaxDP=3.67D-02 DE=-5.07D-01 OVMax= 6.19D-02

 Cycle   4  Pass 0  IDiag  1:
 RMSU=  3.41D-04    CP:  9.84D-01  1.05D+00  5.99D-01
 E= -1991.34648008785     Delta-E=       -0.031208029334 Rises=F Damp=F
 DIIS: error= 3.91D-03 at cycle   4 NSaved=   4.
 NSaved= 4 IEnMin= 4 EnMin= -1991.34648008785     IErMin= 4 ErrMin= 3.91D-03
 ErrMax= 3.91D-03  0.00D+00 EMaxC= 1.00D-01 BMatC= 1.25D-02 BMatP= 5.09D-02
 IDIUse=3 WtCom= 9.61D-01 WtEn= 3.91D-02
 Coeff-Com: -0.280D-01 0.907D-01 0.359D+00 0.578D+00
 Coeff-En:   0.000D+00 0.000D+00 0.209D+00 0.791D+00
 Coeff:     -0.269D-01 0.872D-01 0.353D+00 0.587D+00
 Gap=     0.226 Goal=   None    Shift=    0.000
 RMSDP=2.09D-04 MaxDP=1.36D-02 DE=-3.12D-02 OVMax= 2.86D-02

 Cycle   5  Pass 0  IDiag  1:
 RMSU=  8.65D-05    CP:  9.84D-01  1.03D+00  7.31D-01  5.62D-01
 E= -1991.35691313794     Delta-E=       -0.010433050094 Rises=F Damp=F
 DIIS: error= 9.93D-04 at cycle   5 NSaved=   5.
 NSaved= 5 IEnMin= 5 EnMin= -1991.35691313794     IErMin= 5 ErrMin= 9.93D-04
 ErrMax= 9.93D-04  0.00D+00 EMaxC= 1.00D-01 BMatC= 5.91D-04 BMatP= 1.25D-02
 IDIUse=3 WtCom= 9.90D-01 WtEn= 9.93D-03
 Coeff-Com: -0.919D-02 0.211D-01 0.135D+00 0.285D+00 0.568D+00
 Coeff-En:   0.000D+00 0.000D+00 0.000D+00 0.000D+00 0.100D+01
 Coeff:     -0.910D-02 0.209D-01 0.134D+00 0.282D+00 0.572D+00
 Gap=     0.226 Goal=   None    Shift=    0.000
 RMSDP=5.10D-05 MaxDP=3.77D-03 DE=-1.04D-02 OVMax= 8.99D-03

 Cycle   6  Pass 0  IDiag  1:
 RMSU=  2.74D-05    CP:  9.83D-01  1.03D+00  7.29D-01  6.33D-01  5.93D-01
 E= -1991.35742535776     Delta-E=       -0.000512219820 Rises=F Damp=F
 DIIS: error= 3.25D-04 at cycle   6 NSaved=   6.
 NSaved= 6 IEnMin= 6 EnMin= -1991.35742535776     IErMin= 6 ErrMin= 3.25D-04
 ErrMax= 3.25D-04  0.00D+00 EMaxC= 1.00D-01 BMatC= 5.96D-05 BMatP= 5.91D-04
 IDIUse=3 WtCom= 9.97D-01 WtEn= 3.25D-03
 Coeff-Com: -0.176D-02 0.173D-02 0.302D-01 0.819D-01 0.293D+00 0.594D+00
 Coeff-En:   0.000D+00 0.000D+00 0.000D+00 0.000D+00 0.458D-02 0.995D+00
 Coeff:     -0.176D-02 0.172D-02 0.301D-01 0.817D-01 0.293D+00 0.596D+00
 Gap=     0.227 Goal=   None    Shift=    0.000
 RMSDP=1.51D-05 MaxDP=8.87D-04 DE=-5.12D-04 OVMax= 2.40D-03

 Cycle   7  Pass 0  IDiag  1:
 RMSU=  9.42D-06    CP:  9.83D-01  1.03D+00  7.32D-01  6.34D-01  6.77D-01
                    CP:  6.78D-01
 E= -1991.35748206762     Delta-E=       -0.000056709858 Rises=F Damp=F
 DIIS: error= 5.35D-05 at cycle   7 NSaved=   7.
 NSaved= 7 IEnMin= 7 EnMin= -1991.35748206762     IErMin= 7 ErrMin= 5.35D-05
 ErrMax= 5.35D-05  0.00D+00 EMaxC= 1.00D-01 BMatC= 3.88D-06 BMatP= 5.96D-05
 IDIUse=1 WtCom= 1.00D+00 WtEn= 0.00D+00
 Coeff-Com:  0.178D-03-0.136D-02-0.135D-02 0.563D-02 0.715D-01 0.254D+00
 Coeff-Com:  0.672D+00
 Coeff:      0.178D-03-0.136D-02-0.135D-02 0.563D-02 0.715D-01 0.254D+00
 Coeff:      0.672D+00
 Gap=     0.227 Goal=   None    Shift=    0.000
 RMSDP=4.45D-06 MaxDP=2.42D-04 DE=-5.67D-05 OVMax= 5.28D-04

 Initial convergence to 1.0D-05 achieved.  Increase integral accuracy.
 Cycle   8  Pass 1  IDiag  1:
 E= -1991.35749389873     Delta-E=       -0.000011831109 Rises=F Damp=F
 DIIS: error= 2.02D-04 at cycle   1 NSaved=   1.
 NSaved= 1 IEnMin= 1 EnMin= -1991.35749389873     IErMin= 1 ErrMin= 2.02D-04
 ErrMax= 2.02D-04  0.00D+00 EMaxC= 1.00D-01 BMatC= 1.35D-05 BMatP= 1.35D-05
 IDIUse=3 WtCom= 9.98D-01 WtEn= 2.02D-03
 Coeff-Com:  0.100D+01
 Coeff-En:   0.100D+01
 Coeff:      0.100D+01
 Gap=     0.227 Goal=   None    Shift=    0.000
 RMSDP=4.45D-06 MaxDP=2.42D-04 DE=-1.18D-05 OVMax= 4.65D-04

 Cycle   9  Pass 1  IDiag  1:
 RMSU=  7.36D-05    CP:  1.00D+00
 E= -1991.35750603267     Delta-E=       -0.000012133938 Rises=F Damp=F
 DIIS: error= 2.15D-05 at cycle   2 NSaved=   2.
 NSaved= 2 IEnMin= 2 EnMin= -1991.35750603267     IErMin= 2 ErrMin= 2.15D-05
 ErrMax= 2.15D-05  0.00D+00 EMaxC= 1.00D-01 BMatC= 7.76D-07 BMatP= 1.35D-05
 IDIUse=1 WtCom= 1.00D+00 WtEn= 0.00D+00
 Coeff-Com:  0.670D-01 0.933D+00
 Coeff:      0.670D-01 0.933D+00
 Gap=     0.227 Goal=   None    Shift=    0.000
 RMSDP=3.85D-06 MaxDP=2.09D-04 DE=-1.21D-05 OVMax= 3.62D-04

 Cycle  10  Pass 1  IDiag  1:
 RMSU=  3.22D-06    CP:  1.00D+00  1.03D+00
 E= -1991.35750569982     Delta-E=        0.000000332851 Rises=F Damp=F
 DIIS: error= 3.58D-05 at cycle   3 NSaved=   3.
 NSaved= 3 IEnMin= 2 EnMin= -1991.35750603267     IErMin= 2 ErrMin= 2.15D-05
 ErrMax= 3.58D-05  0.00D+00 EMaxC= 1.00D-01 BMatC= 1.20D-06 BMatP= 7.76D-07
 IDIUse=1 WtCom= 1.00D+00 WtEn= 0.00D+00
 Coeff-Com: -0.146D-01 0.560D+00 0.455D+00
 Coeff:     -0.146D-01 0.560D+00 0.455D+00
 Gap=     0.227 Goal=   None    Shift=    0.000
 RMSDP=1.81D-06 MaxDP=1.26D-04 DE= 3.33D-07 OVMax= 2.32D-04

 Cycle  11  Pass 1  IDiag  1:
 RMSU=  6.42D-07    CP:  1.00D+00  1.03D+00  4.83D-01
 E= -1991.35750671292     Delta-E=       -0.000001013104 Rises=F Damp=F
 DIIS: error= 4.38D-06 at cycle   4 NSaved=   4.
 NSaved= 4 IEnMin= 4 EnMin= -1991.35750671292     IErMin= 4 ErrMin= 4.38D-06
 ErrMax= 4.38D-06  0.00D+00 EMaxC= 1.00D-01 BMatC= 1.24D-08 BMatP= 7.76D-07
 IDIUse=1 WtCom= 1.00D+00 WtEn= 0.00D+00
 Coeff-Com: -0.827D-02 0.260D+00 0.222D+00 0.526D+00
 Coeff:     -0.827D-02 0.260D+00 0.222D+00 0.526D+00
 Gap=     0.227 Goal=   None    Shift=    0.000
 RMSDP=2.29D-07 MaxDP=1.28D-05 DE=-1.01D-06 OVMax= 3.74D-05

 Cycle  12  Pass 1  IDiag  1:
 RMSU=  2.02D-07    CP:  1.00D+00  1.03D+00  5.03D-01  8.69D-01
 E= -1991.35750672445     Delta-E=       -0.000000011532 Rises=F Damp=F
 DIIS: error= 1.44D-06 at cycle   5 NSaved=   5.
 NSaved= 5 IEnMin= 5 EnMin= -1991.35750672445     IErMin= 5 ErrMin= 1.44D-06
 ErrMax= 1.44D-06  0.00D+00 EMaxC= 1.00D-01 BMatC= 9.54D-10 BMatP= 1.24D-08
 IDIUse=1 WtCom= 1.00D+00 WtEn= 0.00D+00
 Coeff-Com: -0.948D-03 0.151D-01 0.152D-01 0.205D+00 0.765D+00
 Coeff:     -0.948D-03 0.151D-01 0.152D-01 0.205D+00 0.765D+00
 Gap=     0.227 Goal=   None    Shift=    0.000
 RMSDP=8.50D-08 MaxDP=4.51D-06 DE=-1.15D-08 OVMax= 1.07D-05

 Cycle  13  Pass 1  IDiag  1:
 RMSU=  6.38D-08    CP:  1.00D+00  1.03D+00  5.04D-01  9.45D-01  8.83D-01
 E= -1991.35750672531     Delta-E=       -0.000000000854 Rises=F Damp=F
 DIIS: error= 4.70D-07 at cycle   6 NSaved=   6.
 NSaved= 6 IEnMin= 6 EnMin= -1991.35750672531     IErMin= 6 ErrMin= 4.70D-07
 ErrMax= 4.70D-07  0.00D+00 EMaxC= 1.00D-01 BMatC= 2.50D-10 BMatP= 9.54D-10
 IDIUse=1 WtCom= 1.00D+00 WtEn= 0.00D+00
 Coeff-Com:  0.767D-03-0.320D-01-0.265D-01 0.367D-01 0.419D+00 0.602D+00
 Coeff:      0.767D-03-0.320D-01-0.265D-01 0.367D-01 0.419D+00 0.602D+00
 Gap=     0.227 Goal=   None    Shift=    0.000
 RMSDP=3.59D-08 MaxDP=1.68D-06 DE=-8.54D-10 OVMax= 4.84D-06

 Cycle  14  Pass 1  IDiag  1:
 RMSU=  2.54D-08    CP:  1.00D+00  1.03D+00  5.05D-01  9.63D-01  9.63D-01
                    CP:  7.69D-01
 E= -1991.35750672557     Delta-E=       -0.000000000267 Rises=F Damp=F
 DIIS: error= 1.33D-07 at cycle   7 NSaved=   7.
 NSaved= 7 IEnMin= 7 EnMin= -1991.35750672557     IErMin= 7 ErrMin= 1.33D-07
 ErrMax= 1.33D-07  0.00D+00 EMaxC= 1.00D-01 BMatC= 1.59D-11 BMatP= 2.50D-10
 IDIUse=1 WtCom= 1.00D+00 WtEn= 0.00D+00
 Coeff-Com:  0.410D-03-0.151D-01-0.130D-01 0.142D-02 0.122D+00 0.268D+00
 Coeff-Com:  0.637D+00
 Coeff:      0.410D-03-0.151D-01-0.130D-01 0.142D-02 0.122D+00 0.268D+00
 Coeff:      0.637D+00
 Gap=     0.227 Goal=   None    Shift=    0.000
 RMSDP=9.32D-09 MaxDP=5.37D-07 DE=-2.67D-10 OVMax= 1.55D-06

 SCF Done:  E(RM062X) =  -1991.35750673     A.U. after   14 cycles
            NFock= 14  Conv=0.93D-08     -V/T= 2.0076
 KE= 1.976407288656D+03 PE=-1.462252583415D+04 EE= 5.669631212090D+03
 Leave Link  502 at Thu Feb  7 12:55:56 2019, MaxMem=   104857600 cpu:            3552.8 elap:             148.3
 (Enter /home/xinyan/g16/l601.exe)
 Copying SCF densities to generalized density rwf, IOpCl= 0 IROHF=0.

 **********************************************************************

            Population analysis using the SCF density.

 **********************************************************************

 Orbital symmetries:
       Occupied  (A) (A) (A) (A) (A) (A) (A) (A) (A) (A) (A) (A)
                 (A) (A) (A) (A) (A) (A) (A) (A) (A) (A) (A) (A)
                 (A) (A) (A) (A) (A) (A) (A) (A) (A) (A) (A) (A)
                 (A) (A) (A) (A) (A) (A) (A) (A) (A) (A) (A) (A)
                 (A) (A) (A) (A) (A) (A) (A) (A) (A) (A) (A) (A)
                 (A) (A) (A) (A) (A) (A) (A) (A) (A) (A) (A) (A)
                 (A) (A) (A) (A) (A) (A) (A) (A) (A) (A) (A) (A)
                 (A) (A) (A) (A) (A) (A) (A) (A) (A) (A) (A) (A)
                 (A) (A) (A) (A) (A) (A) (A) (A) (A) (A) (A) (A)
                 (A) (A) (A) (A) (A) (A) (A) (A) (A) (A) (A) (A)
                 (A) (A) (A) (A) (A) (A) (A) (A) (A) (A) (A) (A)
                 (A) (A) (A) (A) (A) (A) (A) (A)
       Virtual   (A) (A) (A) (A) (A) (A) (A) (A) (A) (A) (A) (A)
                 (A) (A) (A) (A) (A) (A) (A) (A) (A) (A) (A) (A)
                 (A) (A) (A) (A) (A) (A) (A) (A) (A) (A) (A) (A)
                 (A) (A) (A) (A) (A) (A) (A) (A) (A) (A) (A) (A)
                 (A) (A) (A) (A) (A) (A) (A) (A) (A) (A) (A) (A)
                 (A) (A) (A) (A) (A) (A) (A) (A) (A) (A) (A) (A)
                 (A) (A) (A) (A) (A) (A) (A) (A) (A) (A) (A) (A)
                 (A) (A) (A) (A) (A) (A) (A) (A) (A) (A) (A) (A)
                 (A) (A) (A) (A) (A) (A) (A) (A) (A) (A) (A) (A)
                 (A) (A) (A) (A) (A) (A) (A) (A) (A) (A) (A) (A)
                 (A) (A) (A) (A) (A) (A) (A) (A) (A) (A) (A) (A)
                 (A) (A) (A) (A) (A) (A) (A) (A) (A) (A) (A) (A)
                 (A) (A) (A) (A) (A) (A) (A) (A) (A) (A) (A) (A)
                 (A) (A) (A) (A) (A) (A) (A) (A) (A) (A) (A) (A)
                 (A) (A) (A) (A) (A) (A) (A) (A) (A) (A) (A) (A)
                 (A) (A) (A) (A) (A) (A) (A) (A) (A) (A) (A) (A)
                 (A) (A) (A) (A) (A) (A) (A) (A) (A) (A) (A) (A)
                 (A) (A) (A) (A) (A) (A) (A) (A) (A) (A) (A) (A)
                 (A) (A) (A) (A) (A) (A) (A) (A) (A) (A) (A) (A)
                 (A) (A) (A) (A) (A) (A) (A) (A) (A) (A) (A) (A)
                 (A) (A) (A) (A) (A) (A) (A) (A) (A) (A) (A) (A)
                 (A) (A) (A) (A) (A) (A) (A) (A) (A) (A) (A) (A)
                 (A) (A) (A) (A) (A) (A) (A) (A) (A) (A) (A) (A)
                 (A) (A) (A) (A) (A) (A) (A) (A) (A) (A) (A) (A)
                 (A) (A) (A) (A) (A) (A) (A) (A) (A) (A) (A) (A)
                 (A) (A) (A) (A) (A) (A) (A) (A) (A) (A) (A) (A)
                 (A) (A) (A) (A) (A) (A) (A) (A) (A) (A) (A) (A)
                 (A) (A) (A) (A) (A) (A) (A) (A) (A) (A) (A) (A)
                 (A) (A) (A) (A) (A) (A) (A) (A) (A) (A) (A) (A)
                 (A) (A) (A) (A) (A) (A) (A) (A) (A) (A) (A) (A)
                 (A) (A) (A) (A) (A) (A) (A) (A) (A) (A) (A) (A)
                 (A) (A) (A) (A) (A) (A) (A) (A) (A) (A) (A) (A)
                 (A) (A) (A) (A) (A) (A) (A) (A) (A) (A) (A) (A)
                 (A) (A) (A) (A) (A) (A) (A) (A) (A) (A) (A) (A)
                 (A) (A) (A) (A) (A) (A) (A) (A) (A) (A) (A) (A)
                 (A) (A) (A) (A) (A) (A) (A) (A) (A) (A) (A) (A)
                 (A) (A) (A) (A) (A) (A) (A) (A) (A) (A) (A) (A)
                 (A) (A) (A) (A) (A) (A) (A) (A) (A) (A) (A) (A)
                 (A) (A) (A) (A) (A) (A) (A) (A) (A) (A) (A) (A)
                 (A) (A) (A) (A) (A) (A) (A) (A) (A) (A) (A) (A)
                 (A) (A) (A) (A) (A) (A)
 The electronic state is 1-A.
 Alpha  occ. eigenvalues --  -90.14438 -19.62020 -19.61962 -19.58556 -19.56642
 Alpha  occ. eigenvalues --  -19.50902 -14.85255 -14.80363 -14.76307 -10.63386
 Alpha  occ. eigenvalues --  -10.62781 -10.62256 -10.62070 -10.60887 -10.59577
 Alpha  occ. eigenvalues --  -10.58247 -10.57975 -10.57922 -10.57180 -10.56900
 Alpha  occ. eigenvalues --  -10.56787 -10.55758 -10.55757 -10.55012 -10.54927
 Alpha  occ. eigenvalues --  -10.54883 -10.54775 -10.54631 -10.54622 -10.54467
 Alpha  occ. eigenvalues --  -10.54429 -10.54354 -10.52996 -10.51324 -10.51284
 Alpha  occ. eigenvalues --  -10.49529  -8.45413  -6.37634  -6.37604  -6.37448
 Alpha  occ. eigenvalues --   -1.22245  -1.13624  -1.13274  -1.10497  -1.09265
 Alpha  occ. eigenvalues --   -1.05753  -1.02046  -0.99180  -0.95832  -0.95010
 Alpha  occ. eigenvalues --   -0.93550  -0.90319  -0.88753  -0.86117  -0.85581
 Alpha  occ. eigenvalues --   -0.84839  -0.84770  -0.84109  -0.83070  -0.82855
 Alpha  occ. eigenvalues --   -0.76695  -0.76103  -0.75793  -0.74269  -0.72969
 Alpha  occ. eigenvalues --   -0.71744  -0.68303  -0.68164  -0.67920  -0.67349
 Alpha  occ. eigenvalues --   -0.66662  -0.65314  -0.64839  -0.63526  -0.60509
 Alpha  occ. eigenvalues --   -0.60383  -0.59705  -0.59357  -0.57757  -0.57681
 Alpha  occ. eigenvalues --   -0.57260  -0.56473  -0.55818  -0.55144  -0.54243
 Alpha  occ. eigenvalues --   -0.53602  -0.52768  -0.52571  -0.52502  -0.51938
 Alpha  occ. eigenvalues --   -0.51582  -0.50941  -0.50530  -0.49920  -0.49435
 Alpha  occ. eigenvalues --   -0.49137  -0.48929  -0.48217  -0.48124  -0.47896
 Alpha  occ. eigenvalues --   -0.47756  -0.47526  -0.47007  -0.46332  -0.46061
 Alpha  occ. eigenvalues --   -0.44978  -0.44733  -0.44230  -0.43818  -0.43276
 Alpha  occ. eigenvalues --   -0.42584  -0.42180  -0.41285  -0.41207  -0.41008
 Alpha  occ. eigenvalues --   -0.40859  -0.40550  -0.39981  -0.39766  -0.39243
 Alpha  occ. eigenvalues --   -0.39211  -0.39102  -0.38401  -0.38122  -0.37719
 Alpha  occ. eigenvalues --   -0.37338  -0.36700  -0.36473  -0.35890  -0.34942
 Alpha  occ. eigenvalues --   -0.34413  -0.34077  -0.31740  -0.31209  -0.29798
 Alpha  occ. eigenvalues --   -0.28875  -0.28601  -0.27708  -0.24471  -0.24147
 Alpha virt. eigenvalues --   -0.01484   0.00383   0.03501   0.03719   0.10118
 Alpha virt. eigenvalues --    0.10821   0.11543   0.12325   0.13145   0.13384
 Alpha virt. eigenvalues --    0.14216   0.14393   0.14738   0.15278   0.15586
 Alpha virt. eigenvalues --    0.16109   0.16689   0.16906   0.17157   0.17739
 Alpha virt. eigenvalues --    0.17982   0.18273   0.18381   0.18722   0.18993
 Alpha virt. eigenvalues --    0.19233   0.19657   0.20010   0.20104   0.20221
 Alpha virt. eigenvalues --    0.20616   0.20903   0.21171   0.21414   0.21544
 Alpha virt. eigenvalues --    0.22073   0.22489   0.22786   0.23148   0.23707
 Alpha virt. eigenvalues --    0.23848   0.24194   0.24604   0.24668   0.24803
 Alpha virt. eigenvalues --    0.25246   0.25456   0.25859   0.26256   0.26777
 Alpha virt. eigenvalues --    0.27082   0.27693   0.27870   0.28446   0.28859
 Alpha virt. eigenvalues --    0.29084   0.29326   0.29656   0.30725   0.30827
 Alpha virt. eigenvalues --    0.31219   0.31561   0.31884   0.32381   0.32986
 Alpha virt. eigenvalues --    0.33531   0.34405   0.35370   0.35456   0.35830
 Alpha virt. eigenvalues --    0.36464   0.37492   0.37526   0.37949   0.38829
 Alpha virt. eigenvalues --    0.39897   0.40463   0.40647   0.42794   0.43070
 Alpha virt. eigenvalues --    0.44236   0.44614   0.47278   0.47919   0.48867
 Alpha virt. eigenvalues --    0.49550   0.51045   0.52641   0.53359   0.54852
 Alpha virt. eigenvalues --    0.55148   0.55373   0.56088   0.56779   0.57012
 Alpha virt. eigenvalues --    0.57424   0.58144   0.58562   0.59086   0.59519
 Alpha virt. eigenvalues --    0.59732   0.59804   0.60372   0.60501   0.60699
 Alpha virt. eigenvalues --    0.61084   0.61493   0.62364   0.62532   0.62872
 Alpha virt. eigenvalues --    0.63664   0.63964   0.64453   0.64848   0.65663
 Alpha virt. eigenvalues --    0.66020   0.66392   0.66959   0.67515   0.67926
 Alpha virt. eigenvalues --    0.68246   0.68949   0.69154   0.70001   0.70705
 Alpha virt. eigenvalues --    0.70896   0.71436   0.71788   0.72865   0.73350
 Alpha virt. eigenvalues --    0.73709   0.74325   0.74772   0.74848   0.75841
 Alpha virt. eigenvalues --    0.76547   0.77273   0.77846   0.78549   0.79039
 Alpha virt. eigenvalues --    0.79474   0.79985   0.80201   0.80695   0.81016
 Alpha virt. eigenvalues --    0.81807   0.82109   0.82791   0.83999   0.84625
 Alpha virt. eigenvalues --    0.84858   0.85351   0.85690   0.85917   0.86820
 Alpha virt. eigenvalues --    0.87812   0.88393   0.89007   0.89406   0.89628
 Alpha virt. eigenvalues --    0.89780   0.90118   0.90665   0.91206   0.91275
 Alpha virt. eigenvalues --    0.91455   0.92120   0.92694   0.92856   0.93277
 Alpha virt. eigenvalues --    0.93571   0.94055   0.94647   0.94928   0.95244
 Alpha virt. eigenvalues --    0.95707   0.96021   0.96690   0.96771   0.97021
 Alpha virt. eigenvalues --    0.97178   0.97779   0.98030   0.98356   0.98525
 Alpha virt. eigenvalues --    0.99161   0.99488   0.99771   1.00284   1.00927
 Alpha virt. eigenvalues --    1.01269   1.01751   1.02317   1.02646   1.03096
 Alpha virt. eigenvalues --    1.03140   1.04223   1.04367   1.04577   1.05756
 Alpha virt. eigenvalues --    1.06103   1.06933   1.07907   1.08159   1.09018
 Alpha virt. eigenvalues --    1.10018   1.10713   1.11264   1.11540   1.11906
 Alpha virt. eigenvalues --    1.13232   1.13517   1.14792   1.14842   1.15701
 Alpha virt. eigenvalues --    1.16399   1.17518   1.18369   1.18682   1.18995
 Alpha virt. eigenvalues --    1.19858   1.20214   1.20841   1.21435   1.21742
 Alpha virt. eigenvalues --    1.22215   1.23766   1.24071   1.25213   1.25428
 Alpha virt. eigenvalues --    1.26107   1.27057   1.28453   1.29110   1.29999
 Alpha virt. eigenvalues --    1.31059   1.31571   1.32050   1.32906   1.33349
 Alpha virt. eigenvalues --    1.33760   1.34538   1.35272   1.36202   1.36865
 Alpha virt. eigenvalues --    1.37082   1.38451   1.38875   1.40341   1.41126
 Alpha virt. eigenvalues --    1.41860   1.42484   1.43587   1.44471   1.46531
 Alpha virt. eigenvalues --    1.47191   1.47988   1.48326   1.49227   1.49981
 Alpha virt. eigenvalues --    1.51141   1.51795   1.52482   1.52786   1.54354
 Alpha virt. eigenvalues --    1.54923   1.55073   1.55877   1.57109   1.57215
 Alpha virt. eigenvalues --    1.57584   1.58240   1.60511   1.60821   1.61190
 Alpha virt. eigenvalues --    1.61986   1.62666   1.63406   1.65478   1.67259
 Alpha virt. eigenvalues --    1.69099   1.69574   1.70130   1.71755   1.72693
 Alpha virt. eigenvalues --    1.73978   1.74847   1.75867   1.76995   1.77638
 Alpha virt. eigenvalues --    1.78425   1.79953   1.80498   1.80981   1.82186
 Alpha virt. eigenvalues --    1.83906   1.84118   1.85287   1.85653   1.85733
 Alpha virt. eigenvalues --    1.86459   1.87100   1.87648   1.87876   1.88573
 Alpha virt. eigenvalues --    1.89683   1.90069   1.90404   1.90720   1.91817
 Alpha virt. eigenvalues --    1.92638   1.93739   1.94211   1.94695   1.94964
 Alpha virt. eigenvalues --    1.95218   1.95938   1.96556   1.97274   1.97564
 Alpha virt. eigenvalues --    1.98777   1.99130   1.99525   1.99982   2.00796
 Alpha virt. eigenvalues --    2.01721   2.02189   2.02482   2.02792   2.04216
 Alpha virt. eigenvalues --    2.05020   2.05913   2.06175   2.07154   2.07317
 Alpha virt. eigenvalues --    2.07459   2.07657   2.08734   2.09376   2.09778
 Alpha virt. eigenvalues --    2.09957   2.10648   2.11694   2.11939   2.12789
 Alpha virt. eigenvalues --    2.12973   2.14195   2.14531   2.14798   2.15661
 Alpha virt. eigenvalues --    2.15871   2.16435   2.17396   2.18751   2.19067
 Alpha virt. eigenvalues --    2.19764   2.20124   2.20623   2.21370   2.22196
 Alpha virt. eigenvalues --    2.22974   2.23293   2.23530   2.23808   2.24412
 Alpha virt. eigenvalues --    2.25164   2.25514   2.26008   2.27464   2.27986
 Alpha virt. eigenvalues --    2.29201   2.29321   2.30478   2.30676   2.31564
 Alpha virt. eigenvalues --    2.31955   2.34003   2.34648   2.35131   2.35488
 Alpha virt. eigenvalues --    2.35884   2.37261   2.37471   2.38401   2.38889
 Alpha virt. eigenvalues --    2.39003   2.40545   2.41046   2.41211   2.42416
 Alpha virt. eigenvalues --    2.43396   2.44377   2.45437   2.46213   2.46971
 Alpha virt. eigenvalues --    2.49149   2.50255   2.51839   2.52218   2.52600
 Alpha virt. eigenvalues --    2.54066   2.54254   2.55610   2.56868   2.59914
 Alpha virt. eigenvalues --    2.60948   2.61914   2.62186   2.63039   2.63399
 Alpha virt. eigenvalues --    2.64523   2.64732   2.65570   2.67075   2.68306
 Alpha virt. eigenvalues --    2.68917   2.69492   2.70078   2.71702   2.72682
 Alpha virt. eigenvalues --    2.73271   2.74450   2.76150   2.76585   2.77676
 Alpha virt. eigenvalues --    2.79477   2.80168   2.80580   2.80664   2.81608
 Alpha virt. eigenvalues --    2.83510   2.85356   2.86103   2.86848   2.88355
 Alpha virt. eigenvalues --    2.89342   2.91051   2.92677   2.93802   2.96875
 Alpha virt. eigenvalues --    2.99805   3.00438   3.02995   3.05316   3.10580
 Alpha virt. eigenvalues --    3.14785   3.16535   3.23927   3.41411   3.42723
 Alpha virt. eigenvalues --    3.95464   4.01480   4.04301   4.09203   4.10908
 Alpha virt. eigenvalues --    4.15523   4.16546   4.17406   4.18283   4.19528
 Alpha virt. eigenvalues --    4.20970   4.22868   4.24335   4.26176   4.27652
 Alpha virt. eigenvalues --    4.29364   4.32205   4.32912   4.34479   4.34919
 Alpha virt. eigenvalues --    4.39991   4.40264   4.41549   4.43694   4.46607
 Alpha virt. eigenvalues --    4.48393   4.55462   4.58133   4.59397   4.61151
 Alpha virt. eigenvalues --    4.63366   4.66171   4.73547   4.75561   4.76674
 Alpha virt. eigenvalues --    4.79903
          Condensed to atoms (all electrons):
 Mulliken charges:
               1
     1  C   -0.306338
     2  C   -0.307380
     3  C   -0.309453
     4  C   -0.059592
     5  C    0.055509
     6  C   -0.310429
     7  H    0.174591
     8  H    0.163057
     9  H    0.166095
    10  H    0.150665
    11  H    0.164234
    12  H    0.208227
    13  H    0.174393
    14  H    0.194770
    15  H    0.163385
    16  H    0.155127
    17  N   -0.432769
    18  C    0.069043
    19  C    0.066027
    20  C   -0.202333
    21  H    0.205737
    22  C   -0.210664
    23  H    0.244014
    24  C    0.447127
    25  H    0.192416
    26  H    0.211202
    27  N   -0.524294
    28  C   -0.169328
    29  H    0.169099
    30  H    0.226702
    31  C   -0.152876
    32  H    0.163674
    33  H    0.206887
    34  N   -0.809220
    35  S    1.249658
    36  O   -0.608152
    37  O   -0.601861
    38  C    0.076797
    39  C   -0.188839
    40  C   -0.190712
    41  C   -0.172282
    42  C   -0.164264
    43  C   -0.210673
    44  H    0.218843
    45  H    0.140252
    46  H    0.154972
    47  H    0.158521
    48  H    0.152259
    49  O   -0.557591
    50  H    0.444714
    51  C    0.720548
    52  O   -0.718162
    53  O   -0.716242
    54  H    0.440291
    55  C   -0.338053
    56  H    0.147099
    57  H    0.150701
    58  C   -0.087273
    59  H    0.137495
    60  H    0.148983
    61  C   -0.664040
    62  H    0.276587
    63  H    0.197212
    64  H    0.218630
    65  C   -0.289727
    66  H    0.133948
    67  H    0.144872
    68  C   -0.473482
    69  H    0.148386
    70  H    0.152686
    71  H    0.146858
    72  C   -0.332610
    73  H    0.186462
    74  H    0.162150
    75  C   -0.342007
    76  H    0.199784
    77  H    0.169958
 Sum of Mulliken charges =  -0.00000
 Mulliken charges with hydrogens summed into heavy atoms:
               1
     1  C    0.008560
     2  C    0.021773
     3  C    0.020265
     4  C    0.148635
     5  C    0.229902
     6  C    0.047726
    17  N   -0.432769
    18  C    0.274780
    19  C    0.310041
    20  C   -0.009917
    22  C    0.000537
    24  C    0.447127
    27  N   -0.524294
    28  C    0.226473
    31  C    0.217685
    34  N   -0.364506
    35  S    1.249658
    36  O   -0.608152
    37  O   -0.601861
    38  C    0.076797
    39  C    0.030004
    40  C   -0.050460
    41  C   -0.017310
    42  C   -0.005743
    43  C   -0.058415
    49  O   -0.557591
    51  C    0.720548
    52  O   -0.718162
    53  O   -0.275951
    55  C   -0.040253
    58  C    0.199205
    61  C    0.028389
    65  C   -0.010907
    68  C   -0.025553
    72  C    0.016002
    75  C    0.027735
 Electronic spatial extent (au):  <R**2>=          14389.8044
 Charge=             -0.0000 electrons
 Dipole moment (field-independent basis, Debye):
    X=             -2.9468    Y=             -2.1285    Z=             -6.1646  Tot=              7.1566
 Quadrupole moment (field-independent basis, Debye-Ang):
   XX=           -206.6900   YY=           -221.8676   ZZ=           -220.1223
   XY=            -12.7392   XZ=             -4.7846   YZ=             10.2442
 Traceless Quadrupole moment (field-independent basis, Debye-Ang):
   XX=              9.5366   YY=             -5.6409   ZZ=             -3.8956
   XY=            -12.7392   XZ=             -4.7846   YZ=             10.2442
 Octapole moment (field-independent basis, Debye-Ang**2):
  XXX=             10.0631  YYY=            -53.3353  ZZZ=             12.7870  XYY=              6.8323
  XXY=            -26.6437  XXZ=            -40.8655  XZZ=            -22.5417  YZZ=             13.4215
  YYZ=             20.4985  XYZ=            -19.1026
 Hexadecapole moment (field-independent basis, Debye-Ang**3):
 XXXX=          -9866.6001 YYYY=          -5432.3549 ZZZZ=          -3573.5640 XXXY=           -204.5477
 XXXZ=             -6.5670 YYYX=            -82.6596 YYYZ=             46.6111 ZZZX=            -99.7964
 ZZZY=              7.7561 XXYY=          -2560.3981 XXZZ=          -2337.9742 YYZZ=          -1607.4926
 XXYZ=             46.4577 YYXZ=             46.1465 ZZXY=            -57.5773
 N-N= 4.985129826679D+03 E-N=-1.462252587962D+04  KE= 1.976407288656D+03
 No NMR shielding tensors so no spin-rotation constants.
 Leave Link  601 at Thu Feb  7 12:55:57 2019, MaxMem=   104857600 cpu:              17.6 elap:               0.8
 (Enter /home/xinyan/g16/l701.exe)
 ... and contract with generalized density number  0.
 Compute integral first derivatives.
 R6Disp: Adding Grimme-D3 dispersion energy 1st derivatives to the gradient.
 Leave Link  701 at Thu Feb  7 12:55:58 2019, MaxMem=   104857600 cpu:              20.5 elap:               0.9
 (Enter /home/xinyan/g16/l702.exe)
 L702 exits ... SP integral derivatives will be done elsewhere.
 Leave Link  702 at Thu Feb  7 12:55:58 2019, MaxMem=   104857600 cpu:               1.4 elap:               0.1
 (Enter /home/xinyan/g16/l703.exe)
 Integral derivatives from FoFJK, PRISM(SPDF).
 Compute integral first derivatives, UseDBF=F ICtDFT=           0.
 Calling FoFJK, ICntrl=      2127 FMM=T ISym2X=0 I1Cent= 0 IOpClX= 0 NMat=1 NMatS=1 NMatT=0.
 FoFJK:  IHMeth= 1 ICntrl=    2127 DoSepK=F KAlg= 0 I1Cent=           0 FoldK=F
 IRaf=         0 NMat=       1 IRICut=       1 DoRegI=T DoRafI=F ISym2E= 0 IDoP0=0 IntGTp=1.
 FoFCou: FMM=T IPFlag=           0 FMFlag=      100000 FMFlg1=        2001
         NFxFlg=           0 DoJE=F BraDBF=F KetDBF=F FulRan=T
         wScrn=  0.000000 ICntrl=      2127 IOpCl=  0 I1Cent=           0 NGrid=           0
         NMat0=    1 NMatS0=      1 NMatT0=    0 NMatD0=    1 NMtDS0=    0 NMtDT0=    0
 Symmetry not used in FoFCou.
 FMM levels:  10  Number of levels for PrismC:   9
 Leave Link  703 at Thu Feb  7 12:56:33 2019, MaxMem=   104857600 cpu:             832.8 elap:              35.7
 (Enter /home/xinyan/g16/l716.exe)
 Dipole        =-1.15934151D+00-8.37435295D-01-2.42535133D+00
 ***** Axes restored to original set *****
 -------------------------------------------------------------------
 Center     Atomic                   Forces (Hartrees/Bohr)
 Number     Number              X              Y              Z
 -------------------------------------------------------------------
      1        6           0.000067280    0.000001145   -0.000005230
      2        6           0.000048391    0.000025907    0.000036599
      3        6           0.000025806   -0.000008619    0.000004491
      4        6           0.000035614    0.000023352   -0.000034868
      5        6           0.000122128   -0.000025074   -0.000081787
      6        6           0.000077714    0.000003265    0.000012310
      7        1          -0.000015795    0.000002268   -0.000014101
      8        1           0.000026518    0.000026201    0.000016622
      9        1           0.000017025    0.000039378    0.000021739
     10        1           0.000053734    0.000015181   -0.000012966
     11        1           0.000072225    0.000033983    0.000025650
     12        1           0.000028558   -0.000063178    0.000058015
     13        1           0.000067589   -0.000071599   -0.000031195
     14        1           0.000081805    0.000034253   -0.000017327
     15        1           0.000104865    0.000002103   -0.000012346
     16        1          -0.000000179   -0.000001472   -0.000045337
     17        7           0.000000250   -0.000019390   -0.000033461
     18        6           0.000007262   -0.000037423   -0.000048764
     19        6           0.000004557   -0.000024703   -0.000007618
     20        6           0.000001552   -0.000013426    0.000003818
     21        1           0.000031079   -0.000019524   -0.000022612
     22        6           0.000028537   -0.000015667    0.000011927
     23        1           0.000000699   -0.000045601   -0.000050757
     24        6          -0.000005005   -0.000036525    0.000021061
     25        1           0.000045722    0.000016114    0.000009084
     26        1           0.000014323   -0.000012424   -0.000001882
     27        7           0.000019820    0.000074044    0.000022455
     28        6           0.000004856    0.000029842    0.000077250
     29        1          -0.000000764    0.000034153    0.000067823
     30        1          -0.000014541    0.000060001    0.000070004
     31        6          -0.000009492    0.000036040    0.000057396
     32        1          -0.000020929    0.000072941    0.000059864
     33        1          -0.000004904    0.000061330    0.000113520
     34        7          -0.000371606   -0.000123028    0.000174700
     35       16           0.000104919    0.000016954   -0.000183063
     36        8           0.000017066   -0.000050538   -0.000097912
     37        8           0.000049279   -0.000061942   -0.000032974
     38        6           0.000006750    0.000049414    0.000057571
     39        6          -0.000016963    0.000132966   -0.000007981
     40        6          -0.000027823    0.000079659    0.000043903
     41        6          -0.000067272    0.000056824    0.000067271
     42        6          -0.000041630   -0.000005571    0.000084221
     43        6          -0.000021114    0.000017516    0.000035316
     44        1          -0.000009313    0.000046666   -0.000012508
     45        1          -0.000025861    0.000113366    0.000024828
     46        1          -0.000060197    0.000055662    0.000078217
     47        1          -0.000060655   -0.000015931    0.000099770
     48        1          -0.000042329   -0.000014775    0.000086818
     49        8          -0.000055730    0.000098043    0.000077770
     50        1           0.000316963   -0.000073845   -0.000122841
     51        6           0.000195276   -0.000126721    0.000049682
     52        8          -0.000129265   -0.000003372    0.000220272
     53        8          -0.000583280   -0.000025142   -0.000258348
     54        1           0.000252039    0.000236703    0.000149967
     55        6          -0.000114027    0.000033764   -0.000096862
     56        1           0.000025867   -0.000022676   -0.000070280
     57        1          -0.000071503   -0.000089612   -0.000078908
     58        6          -0.000036533   -0.000007833    0.000027592
     59        1           0.000023158    0.000073011    0.000030777
     60        1           0.000027492    0.000017645   -0.000001873
     61        6          -0.000044726   -0.000038941   -0.000045635
     62        1          -0.000020854    0.000037087   -0.000015311
     63        1          -0.000039735   -0.000042920   -0.000095028
     64        1          -0.000084897   -0.000026036   -0.000050358
     65        6          -0.000049507   -0.000063126   -0.000061025
     66        1          -0.000143401   -0.000060510   -0.000088149
     67        1          -0.000032832    0.000033280    0.000000937
     68        6           0.000024781   -0.000134400   -0.000131080
     69        1           0.000007804   -0.000155951   -0.000152971
     70        1           0.000128767   -0.000130755   -0.000126689
     71        1          -0.000001604   -0.000215611   -0.000190203
     72        6           0.000006579    0.000043797    0.000055393
     73        1          -0.000007500    0.000045428    0.000066120
     74        1          -0.000004806    0.000038118    0.000073121
     75        6          -0.000015927   -0.000006368    0.000070310
     76        1           0.000069217    0.000064216    0.000041089
     77        1           0.000008631    0.000008610    0.000034974
 -------------------------------------------------------------------
 Cartesian Forces:  Max     0.000583280 RMS     0.000086467
 Z-matrix is all fixed cartesians, so copy forces.
 Leave Link  716 at Thu Feb  7 12:56:33 2019, MaxMem=   104857600 cpu:               1.5 elap:               0.1
 (Enter /home/xinyan/g16/l103.exe)

 GradGradGradGradGradGradGradGradGradGradGradGradGradGradGradGradGradGrad
 Berny optimization.
 Search for a local minimum.
 Step number   1 out of a maximum of    2
 All quantities printed in internal units (Hartrees-Bohrs-Radians)
 Second derivative matrix not updated -- first step.
 ITU=  0
     Eigenvalues ---    0.00000   0.00000   0.00000   0.00000   0.00000
     Eigenvalues ---    0.00000   0.00005   0.00013   0.00018   0.00021
     Eigenvalues ---    0.00036   0.00038   0.00084   0.00092   0.00113
     Eigenvalues ---    0.00136   0.00138   0.00204   0.00234   0.00293
     Eigenvalues ---    0.00391   0.00409   0.00447   0.00503   0.00588
     Eigenvalues ---    0.00604   0.00618   0.00697   0.00710   0.00844
     Eigenvalues ---    0.00965   0.01115   0.01156   0.01486   0.01651
     Eigenvalues ---    0.01676   0.01892   0.01901   0.02041   0.02151
     Eigenvalues ---    0.02286   0.02304   0.02450   0.02529   0.02875
     Eigenvalues ---    0.02964   0.03079   0.03095   0.03216   0.03455
     Eigenvalues ---    0.03534   0.03725   0.03888   0.04189   0.04310
     Eigenvalues ---    0.04367   0.04800   0.04843   0.04847   0.04926
     Eigenvalues ---    0.05023   0.05067   0.05114   0.05119   0.05148
     Eigenvalues ---    0.05182   0.05252   0.05357   0.05468   0.05587
     Eigenvalues ---    0.05646   0.05671   0.05716   0.05746   0.05793
     Eigenvalues ---    0.06010   0.06133   0.06318   0.06540   0.06565
     Eigenvalues ---    0.06829   0.06848   0.06971   0.07017   0.07117
     Eigenvalues ---    0.07136   0.07236   0.07270   0.07331   0.07383
     Eigenvalues ---    0.07635   0.07815   0.07860   0.07941   0.08085
     Eigenvalues ---    0.08462   0.08530   0.08841   0.09041   0.09700
     Eigenvalues ---    0.09760   0.10167   0.10466   0.11268   0.11525
     Eigenvalues ---    0.11825   0.12142   0.12618   0.12841   0.12884
     Eigenvalues ---    0.12929   0.13028   0.13365   0.13673   0.13918
     Eigenvalues ---    0.14134   0.14389   0.14652   0.15718   0.15770
     Eigenvalues ---    0.16018   0.16113   0.16812   0.16953   0.16988
     Eigenvalues ---    0.17269   0.17295   0.17794   0.17877   0.19570
     Eigenvalues ---    0.19699   0.20349   0.20638   0.21599   0.21644
     Eigenvalues ---    0.23062   0.23348   0.23878   0.24825   0.26380
     Eigenvalues ---    0.27466   0.28557   0.29483   0.30031   0.30632
     Eigenvalues ---    0.31423   0.32318   0.34048   0.34728   0.36292
     Eigenvalues ---    0.36645   0.39388   0.40052   0.41138   0.43106
     Eigenvalues ---    0.43522   0.44539   0.48109   0.49074   0.50167
     Eigenvalues ---    0.53143   0.56765   0.57531   0.60023   0.64697
     Eigenvalues ---    0.65437   0.66305   0.67294   0.68211   0.68744
     Eigenvalues ---    0.70484   0.77605   0.78050   0.78693   0.81410
     Eigenvalues ---    0.83038   0.83350   0.85687   0.85969   0.87314
     Eigenvalues ---    0.88051   0.88685   0.90538   0.91300   0.93768
     Eigenvalues ---    0.94291   0.94811   0.94872   0.95725   0.96378
     Eigenvalues ---    0.97956   0.98035   0.99473   1.00439   1.00482
     Eigenvalues ---    1.00793   1.04005   1.04311   1.04460   1.06163
     Eigenvalues ---    1.06404   1.06759   1.07137   1.08693   1.09173
     Eigenvalues ---    1.13478   1.15589   1.15645   1.17382   1.19610
     Eigenvalues ---    1.21232   1.24043   1.26313   1.27633   1.37145
     Eigenvalues ---    1.47208   1.53544   1.58113   1.58959   1.59278
     Eigenvalues ---    1.59546   1.66719   1.73013   1.84295   2.35171
 Eigenvalue     1 is   6.66D-16 Eigenvector:
                          Y71       Y57       Y70       Y56       Y68
   1                    0.13489   0.13489   0.13489   0.13489   0.13489
                          Y53       Y55       Y69       Y54       Y65
   1                    0.13489   0.13489   0.13489   0.13489   0.13489
 Eigenvalue     2 is   5.42D-08 Eigenvector:
                          Y46       Y47       Y41       X54       X52
   1                    0.19579   0.16820   0.16362  -0.15658  -0.14936
                          Y45       Y42       X53       Y40       X45
   1                    0.14890   0.14818  -0.14190   0.13728  -0.13694
 Eigenvalue     3 is   7.05D-08 Eigenvector:
                          Z47       Z46       Y46       Z42       X46
   1                    0.19535   0.18032  -0.16894   0.16742  -0.16472
                          Z41       Z71       X54       Z48       Z69
   1                    0.15914  -0.14916   0.14858   0.14612  -0.14598
 Eigenvalue     4 is   1.63D-07 Eigenvector:
                          Z77       Z76       Z57       Z71       Z75
   1                    0.18924   0.18134  -0.17156  -0.17103   0.16172
                          Y64       Z53       Z33       Z54       Z66
   1                   -0.15795  -0.15420   0.15106  -0.14991  -0.14829
 Eigenvalue     5 is   2.50D-07 Eigenvector:
                          Z47       Y46       Y64       Y9        Y47
   1                    0.18324   0.17105   0.15861  -0.15805   0.14749
                          Z42       Y71       Z48       Z46       Y7
   1                    0.14619  -0.14361   0.14350   0.13875  -0.13831
 Eigenvalue     6 is   4.70D-07 Eigenvector:
                          Z54       Y69       Y59       Y48       Y66
   1                    0.24793  -0.24455   0.23122   0.23064  -0.19235
                          Y71       Y45       Z53       Z70       Z69
   1                   -0.18831  -0.18759   0.18656  -0.18201  -0.17364
 Eigenvalue     7 is   4.63D-05 Eigenvector:
                          X69       X45       X70       X46       Z69
   1                    0.26431  -0.22922   0.22696  -0.21952   0.21792
                          Z70       X68       X67       Z68       X40
   1                    0.21746   0.20577   0.19057   0.17818  -0.17689
 Quadratic step=6.232D+00 exceeds max=3.000D-01 adjusted using Lamda=-2.388D-03.
 Angle between NR and scaled steps=  22.60 degrees.
 Angle between quadratic step and forces=  52.00 degrees.
 Linear search not attempted -- first point.
 B after Tr=    -0.000578    0.000227    0.000629
         Rot=    1.000000   -0.000171    0.000088   -0.000124 Ang=  -0.03 deg.
 Variable       Old X    -DE/DX   Delta X   Delta X   Delta X     New X
                                 (Linear)    (Quad)   (Total)
    X1       -9.32597   0.00007   0.00000   0.02096   0.02041  -9.30555
    Y1        0.45737   0.00000   0.00000   0.00790   0.00610   0.46347
    Z1       -0.81377  -0.00001   0.00000  -0.00367  -0.00452  -0.81829
    X2       -9.66194   0.00005   0.00000   0.01026   0.01059  -9.65135
    Y2       -1.96320   0.00003   0.00000   0.00662   0.00526  -1.95794
    Z2       -2.36507   0.00004   0.00000   0.00079  -0.00095  -2.36602
    X3       -7.13768   0.00003   0.00000   0.00505   0.00579  -7.13189
    Y3       -2.81737  -0.00001   0.00000  -0.00297  -0.00332  -2.82069
    Z3       -3.50321   0.00000   0.00000  -0.00397  -0.00556  -3.50877
    X4       -5.25100   0.00004   0.00000   0.00801   0.00848  -5.24252
    Y4       -3.23689   0.00002   0.00000  -0.00649  -0.00709  -3.24399
    Z4       -1.36676  -0.00003   0.00000  -0.00718  -0.00858  -1.37534
    X5       -4.83845   0.00012   0.00000   0.01822   0.01781  -4.82065
    Y5       -0.77358  -0.00003   0.00000  -0.00637  -0.00739  -0.78097
    Z5        0.16121  -0.00008   0.00000  -0.01094  -0.01143   0.14978
    X6       -7.35447   0.00008   0.00000   0.02394   0.02310  -7.33137
    Y6        0.12283   0.00000   0.00000   0.00435   0.00233   0.12516
    Z6        1.28052   0.00001   0.00000  -0.00753  -0.00814   1.27237
    X7       -7.35648  -0.00002   0.00000  -0.00307  -0.00170  -7.35818
    Y7       -4.55014   0.00000   0.00000  -0.00347  -0.00349  -4.55363
    Z7       -4.61363  -0.00001   0.00000  -0.00157  -0.00379  -4.61743
    X8      -10.40876   0.00003   0.00000   0.00850   0.00899 -10.39978
    Y8       -3.47152   0.00003   0.00000   0.01077   0.00881  -3.46272
    Z8       -1.15183   0.00002   0.00000   0.00488   0.00249  -1.14933
    X9      -11.04055   0.00002   0.00000   0.00751   0.00802 -11.03253
    Y9       -1.66740   0.00004   0.00000   0.00883   0.00764  -1.65976
    Z9       -3.87834   0.00002   0.00000   0.00376   0.00188  -3.87646
   X10       -8.72035   0.00005   0.00000   0.02310   0.02240  -8.69795
   Y10        1.99047   0.00002   0.00000   0.00430   0.00308   1.99355
   Z10       -2.07450  -0.00001   0.00000  -0.00703  -0.00725  -2.08175
   X11      -11.13587   0.00007   0.00000   0.02470   0.02386 -11.11201
   Y11        1.02741   0.00003   0.00000   0.01475   0.01222   1.03962
   Z11        0.01075   0.00003   0.00000  -0.00020  -0.00117   0.00958
   X12       -5.97807   0.00003   0.00000   0.00732   0.00792  -5.97015
   Y12       -4.69092  -0.00006   0.00000  -0.00370  -0.00492  -4.69585
   Z12       -0.08810   0.00006   0.00000  -0.00403  -0.00605  -0.09415
   X13       -4.21435   0.00007   0.00000   0.02293   0.02240  -4.19195
   Y13        0.67361  -0.00007   0.00000  -0.01032  -0.01072   0.66289
   Z13       -1.18696  -0.00003   0.00000  -0.01288  -0.01276  -1.19972
   X14       -8.02716   0.00008   0.00000   0.02225   0.02151  -8.00565
   Y14       -1.25109   0.00003   0.00000   0.00892   0.00625  -1.24484
   Z14        2.67377  -0.00002   0.00000  -0.00394  -0.00515   2.66863
   X15       -7.02203   0.00010   0.00000   0.03276   0.03131  -6.99072
   Y15        1.91921   0.00000   0.00000   0.00452   0.00225   1.92145
   Z15        2.25390  -0.00001   0.00000  -0.01081  -0.01076   2.24314
   X16       -6.46120  -0.00000   0.00000   0.00671   0.00730  -6.45390
   Y16       -1.32623  -0.00000   0.00000  -0.00650  -0.00624  -1.33247
   Z16       -4.77872  -0.00005   0.00000  -0.00731  -0.00827  -4.78699
   X17       -2.74050   0.00000   0.00000   0.00585   0.00669  -2.73381
   Y17       -4.13334  -0.00002   0.00000  -0.01056  -0.01026  -4.14360
   Z17       -2.19856  -0.00003   0.00000  -0.00837  -0.00964  -2.20820
   X18       -1.42563   0.00001   0.00000   0.00795   0.00877  -1.41686
   Y18       -2.81280  -0.00004   0.00000  -0.00947  -0.00824  -2.82104
   Z18       -3.96886  -0.00005   0.00000  -0.00596  -0.00654  -3.97540
   X19       -1.44417   0.00000   0.00000   0.00400   0.00495  -1.43922
   Y19       -5.67608  -0.00002   0.00000  -0.01019  -0.01012  -5.68619
   Z19       -0.60464  -0.00001   0.00000  -0.00648  -0.00805  -0.61268
   X20        1.13627   0.00000   0.00000   0.00860   0.00948   1.14576
   Y20       -2.92813  -0.00001   0.00000  -0.00471  -0.00278  -2.93091
   Z20       -4.14534   0.00000   0.00000   0.00137   0.00120  -4.14414
   X21       -2.53116   0.00003   0.00000   0.00932   0.01006  -2.52110
   Y21       -1.60151  -0.00002   0.00000  -0.01053  -0.00915  -1.61066
   Z21       -5.19301  -0.00002   0.00000  -0.00825  -0.00861  -5.20162
   X22        1.11885   0.00003   0.00000   0.00444   0.00543   1.12428
   Y22       -5.86777  -0.00002   0.00000  -0.00554  -0.00482  -5.87259
   Z22       -0.64570   0.00001   0.00000   0.00068  -0.00049  -0.64619
   X23       -2.57171   0.00000   0.00000   0.00183   0.00277  -2.56894
   Y23       -6.64904  -0.00005   0.00000  -0.01240  -0.01308  -6.66212
   Z23        0.80355  -0.00005   0.00000  -0.00977  -0.01187   0.79168
   X24        2.54348  -0.00001   0.00000   0.00581   0.00670   2.55018
   Y24       -4.30999  -0.00004   0.00000  -0.00066   0.00099  -4.30900
   Z24       -2.30567   0.00002   0.00000   0.00656   0.00617  -2.29951
   X25        2.07876   0.00005   0.00000   0.01083   0.01169   2.09045
   Y25       -1.82268   0.00002   0.00000  -0.00254   0.00010  -1.82257
   Z25       -5.58346   0.00001   0.00000   0.00441   0.00479  -5.57867
   X26        2.02070   0.00001   0.00000   0.00271   0.00374   2.02445
   Y26       -7.02646  -0.00001   0.00000  -0.00448  -0.00402  -7.03047
   Z26        0.77371  -0.00000   0.00000   0.00264   0.00123   0.77494
   X27        5.04292   0.00002   0.00000   0.00466   0.00549   5.04841
   Y27       -4.15583   0.00007   0.00000   0.00768   0.00989  -4.14594
   Z27       -2.15083   0.00002   0.00000   0.01611   0.01621  -2.13462
   X28        6.40615   0.00000   0.00000  -0.00002   0.00066   6.40681
   Y28       -5.12613   0.00003   0.00000   0.01198   0.01377  -5.11236
   Z28        0.06854   0.00008   0.00000   0.02087   0.02089   0.08943
   X29        6.16674  -0.00000   0.00000   0.00109   0.00225   6.16899
   Y29       -7.17195   0.00003   0.00000   0.01206   0.01373  -7.15822
   Z29        0.23508   0.00007   0.00000   0.02332   0.02259   0.25768
   X30        5.65822  -0.00001   0.00000  -0.00441  -0.00427   5.65395
   Y30       -4.16475   0.00006   0.00000   0.01402   0.01504  -4.14970
   Z30        1.75259   0.00007   0.00000   0.01789   0.01810   1.77069
   X31        6.45215  -0.00001   0.00000   0.00233   0.00286   6.45501
   Y31       -2.09641   0.00004   0.00000   0.01252   0.01549  -2.08092
   Z31       -3.37520   0.00006   0.00000   0.02167   0.02272  -3.35248
   X32        6.95100  -0.00002   0.00000   0.00289   0.00389   6.95489
   Y32       -2.63475   0.00007   0.00000   0.01773   0.02149  -2.61326
   Z32       -5.31410   0.00006   0.00000   0.02043   0.02139  -5.29271
   X33        5.27746  -0.00000   0.00000   0.00036   0.00047   5.27793
   Y33       -0.39699   0.00006   0.00000   0.01126   0.01394  -0.38305
   Z33       -3.37679   0.00011   0.00000   0.02578   0.02721  -3.34958
   X34       -2.75378  -0.00037   0.00000   0.01711   0.01644  -2.73735
   Y34       -0.97060  -0.00012   0.00000  -0.01278  -0.01389  -0.98449
   Z34        1.94436   0.00017   0.00000  -0.01129  -0.01148   1.93288
   X35       -2.85078   0.00010   0.00000   0.00929   0.00857  -2.84221
   Y35       -2.63469   0.00002   0.00000  -0.01299  -0.01501  -2.64971
   Z35        4.54517  -0.00018   0.00000  -0.01245  -0.01322   4.53195
   X36       -5.16640   0.00002   0.00000   0.00957   0.00923  -5.15716
   Y36       -4.15309  -0.00005   0.00000  -0.01313  -0.01571  -4.16880
   Z36        4.49392  -0.00010   0.00000  -0.02131  -0.02301   4.47091
   X37       -0.44138   0.00005   0.00000   0.00845   0.00801  -0.43337
   Y37       -3.96153  -0.00006   0.00000  -0.01268  -0.01421  -3.97574
   Z37        4.84658  -0.00003   0.00000  -0.00402  -0.00482   4.84176
   X38       -1.29140   0.00001   0.00000  -0.00616  -0.00796  -1.29936
   Y38        4.58786   0.00005   0.00000   0.02105   0.02082   4.60868
   Z38        0.39582   0.00006   0.00000   0.01247   0.01445   0.41027
   X39       -0.34597  -0.00002   0.00000  -0.00789  -0.00906  -0.35503
   Y39        3.66184   0.00013   0.00000   0.03175   0.03254   3.69437
   Z39       -1.90297  -0.00001   0.00000   0.00737   0.00920  -1.89378
   X40       -1.75833  -0.00003   0.00000  -0.01459  -0.01541  -1.77375
   Y40        3.87228   0.00008   0.00000   0.03170   0.03289   3.90516
   Z40       -4.11677   0.00004   0.00000   0.01170   0.01335  -4.10342
   X41       -4.14281  -0.00007   0.00000  -0.02028  -0.02138  -4.16419
   Y41        4.99528   0.00006   0.00000   0.01953   0.02011   5.01539
   Z41       -4.10027   0.00007   0.00000   0.02144   0.02305  -4.07722
   X42       -5.10421  -0.00004   0.00000  -0.01904  -0.02078  -5.12498
   Y42        5.91679  -0.00001   0.00000   0.00757   0.00714   5.92393
   Z42       -1.83058   0.00008   0.00000   0.02679   0.02853  -1.80204
   X43       -3.68272  -0.00002   0.00000  -0.01181  -0.01388  -3.69660
   Y43        5.71272   0.00002   0.00000   0.00900   0.00817   5.72089
   Z43        0.38033   0.00004   0.00000   0.02217   0.02410   0.40443
   X44        1.45343  -0.00001   0.00000  -0.00351  -0.00443   1.44900
   Y44        2.67801   0.00005   0.00000   0.03952   0.04075   2.71876
   Z44       -1.89094  -0.00001   0.00000  -0.00033   0.00148  -1.88945
   X45       -0.97483  -0.00003   0.00000  -0.01545  -0.01579  -0.99063
   Y45        3.16242   0.00011   0.00000   0.04115   0.04314   3.20555
   Z45       -5.88087   0.00002   0.00000   0.00751   0.00906  -5.87180
   X46       -5.22999  -0.00006   0.00000  -0.02575  -0.02659  -5.25658
   Y46        5.16394   0.00006   0.00000   0.01929   0.02019   5.18413
   Z46       -5.83392   0.00008   0.00000   0.02490   0.02637  -5.80756
   X47       -6.95544  -0.00006   0.00000  -0.02372  -0.02568  -6.98112
   Y47        6.80356  -0.00002   0.00000  -0.00269  -0.00360   6.79996
   Z47       -1.77819   0.00010   0.00000   0.03461   0.03633  -1.74187
   X48       -4.45082  -0.00004   0.00000  -0.01096  -0.01353  -4.46434
   Y48        6.45353  -0.00001   0.00000  -0.00026  -0.00188   6.45165
   Z48        2.13832   0.00009   0.00000   0.02649   0.02854   2.16686
   X49        1.08106  -0.00006   0.00000  -0.00817  -0.01002   1.07104
   Y49        2.32557   0.00010   0.00000   0.02156   0.02072   2.34629
   Z49        3.89658   0.00008   0.00000   0.01329   0.01491   3.91149
   X50       -0.92098   0.00032   0.00000   0.01960   0.01890  -0.90208
   Y50       -0.49380  -0.00007   0.00000  -0.01762  -0.01809  -0.51189
   Z50        1.38759  -0.00012   0.00000  -0.00964  -0.00934   1.37825
   X51        3.33771   0.00020   0.00000  -0.02407  -0.02539   3.31232
   Y51        1.02291  -0.00013   0.00000   0.00143   0.00154   1.02445
   Z51        2.75021   0.00005   0.00000   0.00514   0.00670   2.75692
   X52        2.70900  -0.00013   0.00000  -0.04638  -0.04706   2.66194
   Y52       -0.05093  -0.00000   0.00000  -0.00787  -0.00719  -0.05812
   Z52        0.60645   0.00022   0.00000   0.01662   0.01770   0.62415
   X53        3.97234  -0.00058   0.00000  -0.02307  -0.02430   3.94804
   Y53       -0.70755  -0.00003   0.00000   0.00925   0.00885  -0.69870
   Z53        4.69283  -0.00026   0.00000   0.01083   0.01192   4.70475
   X54        2.65635   0.00025   0.00000  -0.02990  -0.03080   2.62555
   Y54       -1.99404   0.00024   0.00000   0.01635   0.01564  -1.97840
   Z54        4.62459   0.00015   0.00000   0.02806   0.02848   4.65307
   X55        5.56645  -0.00011   0.00000  -0.01135  -0.01313   5.55332
   Y55        2.92195   0.00003   0.00000  -0.01403  -0.01335   2.90860
   Z55        2.72818  -0.00010   0.00000  -0.02145  -0.01885   2.70933
   X56        5.34993   0.00003   0.00000   0.01356   0.01118   5.36111
   Y56        4.20865  -0.00002   0.00000  -0.00763  -0.00755   4.20110
   Z56        4.34119  -0.00007   0.00000  -0.02327  -0.02026   4.32093
   X57        7.27613  -0.00007   0.00000  -0.01651  -0.01808   7.25805
   Y57        1.81839  -0.00009   0.00000  -0.02641  -0.02543   1.79296
   Z57        3.12678  -0.00008   0.00000  -0.03375  -0.03123   3.09554
   X58        0.20993  -0.00004   0.00000   0.00045  -0.00178   0.20815
   Y58        4.60500  -0.00001   0.00000   0.02227   0.02157   4.62656
   Z58        2.87293   0.00003   0.00000   0.00826   0.01051   2.88344
   X59       -1.04952   0.00002   0.00000   0.00863   0.00594  -1.04358
   Y59        5.40751   0.00007   0.00000   0.03302   0.03151   5.43902
   Z59        4.31443   0.00003   0.00000   0.00941   0.01171   4.32615
   X60        1.77521   0.00003   0.00000   0.00655   0.00402   1.77922
   Y60        5.95906   0.00002   0.00000   0.01385   0.01361   5.97267
   Z60        2.66990  -0.00000   0.00000  -0.00092   0.00206   2.67196
   X61       -3.04378  -0.00004   0.00000  -0.00305  -0.00476  -3.04855
   Y61       -0.39078  -0.00004   0.00000  -0.01146  -0.01438  -0.40516
   Z61        7.03674  -0.00005   0.00000  -0.01478  -0.01482   7.02191
   X62       -1.36572  -0.00002   0.00000  -0.00350  -0.00549  -1.37121
   Y62        0.80298   0.00004   0.00000  -0.00959  -0.01204   0.79094
   Z62        6.86042  -0.00002   0.00000  -0.00745  -0.00680   6.85363
   X63       -4.78025  -0.00004   0.00000  -0.00296  -0.00490  -4.78515
   Y63        0.69495  -0.00004   0.00000  -0.01332  -0.01659   0.67836
   Z63        6.79392  -0.00010   0.00000  -0.02440  -0.02438   6.76954
   X64       -3.06829  -0.00008   0.00000  -0.01155  -0.01332  -3.08161
   Y64       -1.43549  -0.00003   0.00000  -0.01020  -0.01374  -1.44923
   Z64        8.81467  -0.00005   0.00000  -0.01420  -0.01461   8.80005
   X65        5.97669  -0.00005   0.00000  -0.02076  -0.02248   5.95421
   Y65        4.42241  -0.00006   0.00000  -0.02440  -0.02278   4.39963
   Z65        0.29888  -0.00006   0.00000  -0.02939  -0.02621   0.27267
   X66        6.37374  -0.00014   0.00000  -0.05788  -0.05899   6.31475
   Y66        3.11376  -0.00006   0.00000  -0.03250  -0.03027   3.08349
   Z66       -1.25792  -0.00009   0.00000  -0.03204  -0.02924  -1.28716
   X67        4.26039  -0.00003   0.00000  -0.01338  -0.01526   4.24513
   Y67        5.43457   0.00003   0.00000  -0.00109   0.00028   5.43485
   Z67       -0.26014   0.00000   0.00000  -0.00996  -0.00673  -0.26687
   X68        8.14122   0.00002   0.00000   0.00990   0.00767   8.14890
   Y68        6.31265  -0.00013   0.00000  -0.05514  -0.05306   6.25958
   Z68        0.58192  -0.00013   0.00000  -0.05912  -0.05492   0.52700
   X69        8.48822   0.00001   0.00000   0.00301   0.00084   8.48905
   Y69        7.35990  -0.00016   0.00000  -0.06229  -0.05954   7.30036
   Z69       -1.16723  -0.00015   0.00000  -0.06477  -0.06015  -1.22738
   X70        7.71624   0.00013   0.00000   0.04890   0.04607   7.76231
   Y70        7.68867  -0.00013   0.00000  -0.04740  -0.04594   7.64273
   Z70        2.06995  -0.00013   0.00000  -0.05518  -0.05058   2.01937
   X71        9.89803  -0.00000   0.00000   0.00263   0.00056   9.89859
   Y71        5.35397  -0.00022   0.00000  -0.08026  -0.07793   5.27604
   Z71        1.11465  -0.00019   0.00000  -0.08030  -0.07613   1.03853
   X72        9.12836   0.00001   0.00000   0.00055   0.00113   9.12949
   Y72       -4.34800   0.00004   0.00000   0.01264   0.01529  -4.33271
   Z72       -0.46013   0.00006   0.00000   0.02502   0.02578  -0.43435
   X73       10.25800  -0.00001   0.00000  -0.00234  -0.00209  10.25591
   Y73       -4.27843   0.00005   0.00000   0.01459   0.01692  -4.26151
   Z73        1.26406   0.00007   0.00000   0.02683   0.02781   1.29187
   X74       10.01234  -0.00000   0.00000   0.00298   0.00412  10.01645
   Y74       -5.67851   0.00004   0.00000   0.01155   0.01486  -5.66365
   Z74       -1.77772   0.00007   0.00000   0.02781   0.02828  -1.74945
   X75        8.77988  -0.00002   0.00000   0.00245   0.00260   8.78248
   Y75       -1.75580  -0.00001   0.00000   0.01146   0.01443  -1.74137
   Z75       -1.69108   0.00007   0.00000   0.02194   0.02352  -1.66756
   X76        8.32302   0.00007   0.00000   0.00441   0.00396   8.32698
   Y76       -0.37220   0.00006   0.00000   0.01369   0.01606  -0.35614
   Z76       -0.22629   0.00004   0.00000   0.02042   0.02240  -0.20390
   X77       10.42860   0.00001   0.00000   0.00308   0.00326  10.43186
   Y77       -1.10366   0.00001   0.00000   0.00870   0.01245  -1.09121
   Z77       -2.74692   0.00003   0.00000   0.02119   0.02328  -2.72364
         Item               Value     Threshold  Converged?
 Maximum Force            0.000583     0.000450     NO 
 RMS     Force            0.000086     0.000300     YES
 Maximum Displacement     0.077930     0.001800     NO 
 RMS     Displacement     0.019723     0.001200     NO 
 Predicted change in Energy=-2.322917D-04
 GradGradGradGradGradGradGradGradGradGradGradGradGradGradGradGradGradGrad

 Leave Link  103 at Thu Feb  7 12:56:35 2019, MaxMem=   104857600 cpu:              23.7 elap:               1.1
 (Enter /home/xinyan/g16/l9999.exe)
 1\1\GINC-TSE4\Force\RM062X\6-31G(d)\C27H41N3O5S1\STEVETSE\07-Feb-2019\
 0\\#p M062X/6-31G* em=gd3 force int=ultrafine\\Title\\0,1\C,-4.93509,0
 .24203,-0.43063\C,-5.11288,-1.03888,-1.25154\C,-3.7771,-1.49089,-1.853
 82\C,-2.77871,-1.71289,-0.72326\C,-2.5604,-0.40936,0.08531\C,-3.89182,
 0.065,0.67762\H,-3.89288,-2.40783,-2.44143\H,-5.50808,-1.83705,-0.6095
 2\H,-5.84241,-0.88235,-2.05233\H,-4.61461,1.05331,-1.09778\H,-5.89285,
 0.54368,0.00569\H,-3.16346,-2.48233,-0.04662\H,-2.23014,0.35646,-0.628
 11\H,-4.24779,-0.66205,1.4149\H,-3.7159,1.0156,1.19271\H,-3.41912,-0.7
 0181,-2.52879\N,-1.45021,-2.18727,-1.16343\C,-0.75441,-1.48847,-2.1002
 3\C,-0.76422,-3.00365,-0.31996\C,0.60129,-1.5495,-2.19362\H,-1.33943,-
 0.84748,-2.74802\C,0.59207,-3.10509,-0.34169\H,-1.36089,-3.51852,0.425
 22\C,1.34595,-2.28075,-1.22011\H,1.10003,-0.96452,-2.95464\H,1.06931,-
 3.71824,0.40943\N,2.6686,-2.19917,-1.13817\C,3.38999,-2.71263,0.03627\
 H,3.2633,-3.79523,0.1244\H,2.9942,-2.20389,0.92743\C,3.41433,-1.10937,
 -1.78608\H,3.67831,-1.39425,-2.8121\H,2.79271,-0.21008,-1.78692\N,-1.4
 5724,-0.51362,1.02891\S,-1.50857,-1.39422,2.4052\O,-2.73394,-2.19772,2
 .37808\O,-0.23357,-2.09635,2.5647\C,-0.68338,2.42779,0.20946\C,-0.1830
 8,1.93776,-1.00701\C,-0.93047,2.04912,-2.1785\C,-2.19228,2.64339,-2.16
 977\C,-2.70103,3.13103,-0.9687\C,-1.94881,3.02304,0.20126\H,0.76912,1.
 41714,-1.00064\H,-0.51586,1.67348,-3.11202\H,-2.76759,2.73264,-3.08718
 \H,-3.68066,3.60029,-0.94098\H,-2.35527,3.41506,1.13155\O,0.57207,1.23
 064,2.06198\H,-0.48736,-0.26131,0.73428\C,1.76624,0.5413,1.45535\O,1.4
 3354,-0.02695,0.32092\O,2.10207,-0.37442,2.48334\H,1.40568,-1.0552,2.4
 4723\C,2.94564,1.54623,1.44369\H,2.83106,2.22712,2.29726\H,3.85036,0.9
 6225,1.65462\C,0.11109,2.43686,1.52029\H,-0.55538,2.86153,2.2831\H,0.9
 394,3.1534,1.41285\C,-1.6107,-0.20679,3.72368\H,-0.72271,0.42492,3.630
 38\H,-2.5296,0.36775,3.59519\H,-1.62367,-0.75963,4.66452\C,3.16273,2.3
 4024,0.15816\H,3.37284,1.64773,-0.66566\H,2.2545,2.87585,-0.13766\C,4.
 30815,3.34051,0.30794\H,4.49177,3.89469,-0.61767\H,4.08326,4.06867,1.0
 9537\H,5.23781,2.8332,0.58985\C,4.83052,-2.30086,-0.24349\H,5.4283,-2.
 26405,0.66891\H,5.2983,-3.00494,-0.94073\C,4.64611,-0.92913,-0.89488\H
 ,4.40435,-0.19696,-0.11975\H,5.51858,-0.58403,-1.45361\\Version=ES64L-
 G16RevA.03\State=1-A\HF=-1991.3575067\RMSD=9.321e-09\RMSF=8.647e-05\Di
 pole=-1.1062141,-0.7391667,-2.4814558\Quadrupole=7.3335188,-4.9239129,
 -2.4096059,-9.4051258,-3.7981261,7.3276256\PG=C01 [X(C27H41N3O5S1)]\\@


 THE HURRIEDER I GO, THE BEHINDER I GET.
 Job cpu time:       0 days  1 hours 17 minutes 33.6 seconds.
 Elapsed time:       0 days  0 hours  3 minutes 15.9 seconds.
 File lengths (MBytes):  RWF=    216 Int=      0 D2E=      0 Chk=     25 Scr=      1
 Normal termination of Gaussian 16 at Thu Feb  7 12:56:35 2019.
