 Entering Gaussian System, Link 0=g16
 Input=C27N3H41SO5-71.gjf
 Output=C27N3H41SO5-71.log
 Initial command:
 /home/xinyan/g16/l1.exe "/local/home/tmp/Gau-29320.inp" -scrdir="/local/home/tmp/"
 Entering Link 1 = /home/xinyan/g16/l1.exe PID=     29321.
  
 Copyright (c) 1988,1990,1992,1993,1995,1998,2003,2009,2016,
            Gaussian, Inc.  All Rights Reserved.
  
 This is part of the Gaussian(R) 16 program.  It is based on
 the Gaussian(R) 09 system (copyright 2009, Gaussian, Inc.),
 the Gaussian(R) 03 system (copyright 2003, Gaussian, Inc.),
 the Gaussian(R) 98 system (copyright 1998, Gaussian, Inc.),
 the Gaussian(R) 94 system (copyright 1995, Gaussian, Inc.),
 the Gaussian 92(TM) system (copyright 1992, Gaussian, Inc.),
 the Gaussian 90(TM) system (copyright 1990, Gaussian, Inc.),
 the Gaussian 88(TM) system (copyright 1988, Gaussian, Inc.),
 the Gaussian 86(TM) system (copyright 1986, Carnegie Mellon
 University), and the Gaussian 82(TM) system (copyright 1983,
 Carnegie Mellon University). Gaussian is a federally registered
 trademark of Gaussian, Inc.
  
 This software contains proprietary and confidential information,
 including trade secrets, belonging to Gaussian, Inc.
  
 This software is provided under written license and may be
 used, copied, transmitted, or stored only in accord with that
 written license.
  
 The following legend is applicable only to US Government
 contracts under FAR:
  
                    RESTRICTED RIGHTS LEGEND
  
 Use, reproduction and disclosure by the US Government is
 subject to restrictions as set forth in subparagraphs (a)
 and (c) of the Commercial Computer Software - Restricted
 Rights clause in FAR 52.227-19.
  
 Gaussian, Inc.
 340 Quinnipiac St., Bldg. 40, Wallingford CT 06492
  
  
 ---------------------------------------------------------------
 Warning -- This program may not be used in any manner that
 competes with the business of Gaussian, Inc. or will provide
 assistance to any competitor of Gaussian, Inc.  The licensee
 of this program is prohibited from giving any competitor of
 Gaussian, Inc. access to this program.  By using this program,
 the user acknowledges that Gaussian, Inc. is engaged in the
 business of creating and licensing software in the field of
 computational chemistry and represents and warrants to the
 licensee that it is not a competitor of Gaussian, Inc. and that
 it will not use this program in any manner prohibited above.
 ---------------------------------------------------------------
  

 Cite this work as:
 Gaussian 16, Revision A.03,
 M. J. Frisch, G. W. Trucks, H. B. Schlegel, G. E. Scuseria, 
 M. A. Robb, J. R. Cheeseman, G. Scalmani, V. Barone, 
 G. A. Petersson, H. Nakatsuji, X. Li, M. Caricato, A. V. Marenich, 
 J. Bloino, B. G. Janesko, R. Gomperts, B. Mennucci, H. P. Hratchian, 
 J. V. Ortiz, A. F. Izmaylov, J. L. Sonnenberg, D. Williams-Young, 
 F. Ding, F. Lipparini, F. Egidi, J. Goings, B. Peng, A. Petrone, 
 T. Henderson, D. Ranasinghe, V. G. Zakrzewski, J. Gao, N. Rega, 
 G. Zheng, W. Liang, M. Hada, M. Ehara, K. Toyota, R. Fukuda, 
 J. Hasegawa, M. Ishida, T. Nakajima, Y. Honda, O. Kitao, H. Nakai, 
 T. Vreven, K. Throssell, J. A. Montgomery, Jr., J. E. Peralta, 
 F. Ogliaro, M. J. Bearpark, J. J. Heyd, E. N. Brothers, K. N. Kudin, 
 V. N. Staroverov, T. A. Keith, R. Kobayashi, J. Normand, 
 K. Raghavachari, A. P. Rendell, J. C. Burant, S. S. Iyengar, 
 J. Tomasi, M. Cossi, J. M. Millam, M. Klene, C. Adamo, R. Cammi, 
 J. W. Ochterski, R. L. Martin, K. Morokuma, O. Farkas, 
 J. B. Foresman, and D. J. Fox, Gaussian, Inc., Wallingford CT, 2016.
 
 ******************************************
 Gaussian 16:  ES64L-G16RevA.03 25-Dec-2016
                 7-Feb-2019 
 ******************************************
 %nproc=24
 Will use up to   24 processors via shared memory.
 ------------------------------------------
 #p M062X/6-31G* em=gd3 force int=ultrafine
 ------------------------------------------
 1/10=7,30=1,38=1/1,3;
 2/12=2,17=6,18=5,40=1/2;
 3/5=1,6=6,7=1,11=2,25=1,30=1,71=1,74=-55,75=-5,124=31/1,2,3;
 4//1;
 5/5=2,38=5/2;
 6/7=2,8=2,9=2,10=2,28=1/1;
 7/29=1/1,2,3,16;
 1/10=7,30=1/3;
 99//99;
 Leave Link    1 at Thu Feb  7 12:30:29 2019, MaxMem=           0 cpu:               2.5 elap:               0.1
 (Enter /home/xinyan/g16/l101.exe)
 -----
 Title
 -----
 Symbolic Z-matrix:
 Charge =  0 Multiplicity = 1
 C                    -4.94935   0.2374   -0.43226 
 C                    -5.11924  -1.04375  -1.25448 
 C                    -3.77937  -1.49108  -1.85093 
 C                    -2.78399  -1.71004  -0.7169 
 C                    -2.575    -0.40583   0.09229 
 C                    -3.91017   0.06305   0.68018 
 H                    -3.88932  -2.40802  -2.43965 
 H                    -5.51498  -1.84341  -0.61464 
 H                    -5.84546  -0.88921  -2.05866 
 H                    -4.62848   1.05022  -1.09748 
 H                    -5.91001   0.53565  -0.00001 
 H                    -3.16792  -2.48152  -0.04197 
 H                    -2.24559   0.36153  -0.61985 
 H                    -4.26611  -0.66577   1.41574 
 H                    -3.73946   1.01386   1.19676 
 H                    -3.42138  -0.70025  -2.52382 
 N                    -1.45288  -2.17951  -1.15417 
 C                    -0.75917  -1.48369  -2.09473 
 C                    -0.76521  -2.99491  -0.31116 
 C                     0.59602  -1.54794  -2.19353 
 H                    -1.34525  -0.84318  -2.74189 
 C                     0.59073  -3.09899  -0.33803 
 H                    -1.36004  -3.5079    0.43673 
 C                     1.34346  -2.28002  -1.22279 
 H                     1.09277  -0.9656   -2.95791 
 H                     1.06956  -3.71188   0.41227 
 N                     2.66685  -2.20518  -1.14857 
 C                     3.39047  -2.72118   0.02361 
 H                     3.26328  -3.8039    0.11013 
 H                     2.99675  -2.21324   0.91606 
 C                     3.41582  -1.11962  -1.80054 
 H                     3.68319  -1.4112   -2.82386 
 H                     2.7965   -0.21896  -1.80787 
 N                    -1.47534  -0.50249   1.04052 
 S                    -1.51564  -1.38705   2.41552 
 O                    -2.74318  -2.18693   2.39359 
 O                    -0.24084  -2.09128   2.56416 
 C                    -0.67921   2.42034   0.20038 
 C                    -0.17897   1.92146  -1.0123 
 C                    -0.92386   2.03145  -2.18573 
 C                    -2.18205   2.63327  -2.1823 
 C                    -2.69015   3.13026  -0.98458 
 C                    -1.94116   3.02311   0.18743 
 H                     0.77106   1.39599  -0.99987 
 H                    -0.51003   1.64857  -3.11672 
 H                    -2.75507   2.72149  -3.10124 
 H                    -3.66676   3.60601  -0.96139 
 H                    -2.34718   3.42142   1.11526 
 O                     0.57494   1.21334   2.04312 
 H                    -0.50992  -0.24196   0.74771 
 C                     1.78778   0.53709   1.44611 
 O                     1.47477  -0.02674   0.30653 
 O                     2.11477  -0.38003   2.47511 
 H                     1.41763  -1.05928   2.43288 
 C                     2.95547   1.55456   1.45424 
 H                     2.82404   2.23157   2.30827 
 H                     3.86417   0.97959   1.67267 
 C                     0.11156   2.42323   1.51323 
 H                    -0.55864   2.83936   2.27776 
 H                     0.93759   3.14363   1.4137 
 C                    -1.60404  -0.20101   3.73603 
 H                    -0.71594   0.42943   3.63445 
 H                    -2.52394   0.37411   3.61822 
 H                    -1.60703  -0.7552    4.67619 
 C                     3.17643   2.35336   0.17217 
 H                     3.40574   1.66426  -0.64943 
 H                     2.26341   2.87539  -0.13386 
 C                     4.3054    3.37013   0.33579 
 H                     4.49229   3.92705  -0.58755 
 H                     4.06111   4.09508   1.12046 
 H                     5.23886   2.87617   0.62865 
 C                     4.83068  -2.30889  -0.25674 
 H                     5.42884  -2.27306   0.65546 
 H                     5.29856  -3.0117   -0.95527 
 C                     4.64422  -0.93653  -0.90576 
 H                     4.3954   -0.20742  -0.12984 
 H                     5.51716  -0.58707  -1.46108 
 
 ITRead=  0  0  0  0  0  0  0  0  0  0  0  0  0  0  0  0  0  0  0  0
 ITRead=  0  0  0  0  0  0  0  0  0  0  0  0  0  0  0  0  0  0  0  0
 ITRead=  0  0  0  0  0  0  0  0  0  0  0  0  0  0  0  0  0  0  0  0
 ITRead=  0  0  0  0  0  0  0  0  0  0  0  0  0  0  0  0  0
 MicOpt= -1 -1 -1 -1 -1 -1 -1 -1 -1 -1 -1 -1 -1 -1 -1 -1 -1 -1 -1 -1
 MicOpt= -1 -1 -1 -1 -1 -1 -1 -1 -1 -1 -1 -1 -1 -1 -1 -1 -1 -1 -1 -1
 MicOpt= -1 -1 -1 -1 -1 -1 -1 -1 -1 -1 -1 -1 -1 -1 -1 -1 -1 -1 -1 -1
 MicOpt= -1 -1 -1 -1 -1 -1 -1 -1 -1 -1 -1 -1 -1 -1 -1 -1 -1
 NAtoms=     77 NQM=       77 NQMF=       0 NMMI=      0 NMMIF=      0
                NMic=       0 NMicF=      0.
                    Isotopes and Nuclear Properties:
 (Nuclear quadrupole moments (NQMom) in fm**2, nuclear magnetic moments (NMagM)
  in nuclear magnetons)

  Atom         1           2           3           4           5           6           7           8           9          10
 IAtWgt=          12          12          12          12          12          12           1           1           1           1
 AtmWgt=  12.0000000  12.0000000  12.0000000  12.0000000  12.0000000  12.0000000   1.0078250   1.0078250   1.0078250   1.0078250
 NucSpn=           0           0           0           0           0           0           1           1           1           1
 AtZEff=  -0.0000000  -0.0000000  -0.0000000  -0.0000000  -0.0000000  -0.0000000  -0.0000000  -0.0000000  -0.0000000  -0.0000000
 NQMom=    0.0000000   0.0000000   0.0000000   0.0000000   0.0000000   0.0000000   0.0000000   0.0000000   0.0000000   0.0000000
 NMagM=    0.0000000   0.0000000   0.0000000   0.0000000   0.0000000   0.0000000   2.7928460   2.7928460   2.7928460   2.7928460
 AtZNuc=   6.0000000   6.0000000   6.0000000   6.0000000   6.0000000   6.0000000   1.0000000   1.0000000   1.0000000   1.0000000

  Atom        11          12          13          14          15          16          17          18          19          20
 IAtWgt=           1           1           1           1           1           1          14          12          12          12
 AtmWgt=   1.0078250   1.0078250   1.0078250   1.0078250   1.0078250   1.0078250  14.0030740  12.0000000  12.0000000  12.0000000
 NucSpn=           1           1           1           1           1           1           2           0           0           0
 AtZEff=  -0.0000000  -0.0000000  -0.0000000  -0.0000000  -0.0000000  -0.0000000  -0.0000000  -0.0000000  -0.0000000  -0.0000000
 NQMom=    0.0000000   0.0000000   0.0000000   0.0000000   0.0000000   0.0000000   2.0440000   0.0000000   0.0000000   0.0000000
 NMagM=    2.7928460   2.7928460   2.7928460   2.7928460   2.7928460   2.7928460   0.4037610   0.0000000   0.0000000   0.0000000
 AtZNuc=   1.0000000   1.0000000   1.0000000   1.0000000   1.0000000   1.0000000   7.0000000   6.0000000   6.0000000   6.0000000

  Atom        21          22          23          24          25          26          27          28          29          30
 IAtWgt=           1          12           1          12           1           1          14          12           1           1
 AtmWgt=   1.0078250  12.0000000   1.0078250  12.0000000   1.0078250   1.0078250  14.0030740  12.0000000   1.0078250   1.0078250
 NucSpn=           1           0           1           0           1           1           2           0           1           1
 AtZEff=  -0.0000000  -0.0000000  -0.0000000  -0.0000000  -0.0000000  -0.0000000  -0.0000000  -0.0000000  -0.0000000  -0.0000000
 NQMom=    0.0000000   0.0000000   0.0000000   0.0000000   0.0000000   0.0000000   2.0440000   0.0000000   0.0000000   0.0000000
 NMagM=    2.7928460   0.0000000   2.7928460   0.0000000   2.7928460   2.7928460   0.4037610   0.0000000   2.7928460   2.7928460
 AtZNuc=   1.0000000   6.0000000   1.0000000   6.0000000   1.0000000   1.0000000   7.0000000   6.0000000   1.0000000   1.0000000

  Atom        31          32          33          34          35          36          37          38          39          40
 IAtWgt=          12           1           1          14          32          16          16          12          12          12
 AtmWgt=  12.0000000   1.0078250   1.0078250  14.0030740  31.9720718  15.9949146  15.9949146  12.0000000  12.0000000  12.0000000
 NucSpn=           0           1           1           2           0           0           0           0           0           0
 AtZEff=  -0.0000000  -0.0000000  -0.0000000  -0.0000000  -0.0000000  -0.0000000  -0.0000000  -0.0000000  -0.0000000  -0.0000000
 NQMom=    0.0000000   0.0000000   0.0000000   2.0440000   0.0000000   0.0000000   0.0000000   0.0000000   0.0000000   0.0000000
 NMagM=    0.0000000   2.7928460   2.7928460   0.4037610   0.0000000   0.0000000   0.0000000   0.0000000   0.0000000   0.0000000
 AtZNuc=   6.0000000   1.0000000   1.0000000   7.0000000  16.0000000   8.0000000   8.0000000   6.0000000   6.0000000   6.0000000

  Atom        41          42          43          44          45          46          47          48          49          50
 IAtWgt=          12          12          12           1           1           1           1           1          16           1
 AtmWgt=  12.0000000  12.0000000  12.0000000   1.0078250   1.0078250   1.0078250   1.0078250   1.0078250  15.9949146   1.0078250
 NucSpn=           0           0           0           1           1           1           1           1           0           1
 AtZEff=  -0.0000000  -0.0000000  -0.0000000  -0.0000000  -0.0000000  -0.0000000  -0.0000000  -0.0000000  -0.0000000  -0.0000000
 NQMom=    0.0000000   0.0000000   0.0000000   0.0000000   0.0000000   0.0000000   0.0000000   0.0000000   0.0000000   0.0000000
 NMagM=    0.0000000   0.0000000   0.0000000   2.7928460   2.7928460   2.7928460   2.7928460   2.7928460   0.0000000   2.7928460
 AtZNuc=   6.0000000   6.0000000   6.0000000   1.0000000   1.0000000   1.0000000   1.0000000   1.0000000   8.0000000   1.0000000

  Atom        51          52          53          54          55          56          57          58          59          60
 IAtWgt=          12          16          16           1          12           1           1          12           1           1
 AtmWgt=  12.0000000  15.9949146  15.9949146   1.0078250  12.0000000   1.0078250   1.0078250  12.0000000   1.0078250   1.0078250
 NucSpn=           0           0           0           1           0           1           1           0           1           1
 AtZEff=  -0.0000000  -0.0000000  -0.0000000  -0.0000000  -0.0000000  -0.0000000  -0.0000000  -0.0000000  -0.0000000  -0.0000000
 NQMom=    0.0000000   0.0000000   0.0000000   0.0000000   0.0000000   0.0000000   0.0000000   0.0000000   0.0000000   0.0000000
 NMagM=    0.0000000   0.0000000   0.0000000   2.7928460   0.0000000   2.7928460   2.7928460   0.0000000   2.7928460   2.7928460
 AtZNuc=   6.0000000   8.0000000   8.0000000   1.0000000   6.0000000   1.0000000   1.0000000   6.0000000   1.0000000   1.0000000

  Atom        61          62          63          64          65          66          67          68          69          70
 IAtWgt=          12           1           1           1          12           1           1          12           1           1
 AtmWgt=  12.0000000   1.0078250   1.0078250   1.0078250  12.0000000   1.0078250   1.0078250  12.0000000   1.0078250   1.0078250
 NucSpn=           0           1           1           1           0           1           1           0           1           1
 AtZEff=  -0.0000000  -0.0000000  -0.0000000  -0.0000000  -0.0000000  -0.0000000  -0.0000000  -0.0000000  -0.0000000  -0.0000000
 NQMom=    0.0000000   0.0000000   0.0000000   0.0000000   0.0000000   0.0000000   0.0000000   0.0000000   0.0000000   0.0000000
 NMagM=    0.0000000   2.7928460   2.7928460   2.7928460   0.0000000   2.7928460   2.7928460   0.0000000   2.7928460   2.7928460
 AtZNuc=   6.0000000   1.0000000   1.0000000   1.0000000   6.0000000   1.0000000   1.0000000   6.0000000   1.0000000   1.0000000

  Atom        71          72          73          74          75          76          77
 IAtWgt=           1          12           1           1          12           1           1
 AtmWgt=   1.0078250  12.0000000   1.0078250   1.0078250  12.0000000   1.0078250   1.0078250
 NucSpn=           1           0           1           1           0           1           1
 AtZEff=  -0.0000000  -0.0000000  -0.0000000  -0.0000000  -0.0000000  -0.0000000  -0.0000000
 NQMom=    0.0000000   0.0000000   0.0000000   0.0000000   0.0000000   0.0000000   0.0000000
 NMagM=    2.7928460   0.0000000   2.7928460   2.7928460   0.0000000   2.7928460   2.7928460
 AtZNuc=   1.0000000   6.0000000   1.0000000   1.0000000   6.0000000   1.0000000   1.0000000
 Leave Link  101 at Thu Feb  7 12:30:30 2019, MaxMem=   104857600 cpu:               5.8 elap:               0.3
 (Enter /home/xinyan/g16/l103.exe)

 GradGradGradGradGradGradGradGradGradGradGradGradGradGradGradGradGradGrad
 Berny optimization.
 Initialization pass.
 Trust Radius=3.00D-01 FncErr=1.00D-07 GrdErr=1.00D-07 EigMax=2.50D+02 EigMin=1.00D-04
 Number of steps in this run=      2 maximum allowed number of steps=      2.
 GradGradGradGradGradGradGradGradGradGradGradGradGradGradGradGradGradGrad

 Leave Link  103 at Thu Feb  7 12:30:30 2019, MaxMem=   104857600 cpu:               1.6 elap:               0.1
 (Enter /home/xinyan/g16/l202.exe)
 Stoichiometry    C27H41N3O5S
 Framework group  C1[X(C27H41N3O5S)]
 Deg. of freedom   225
 Full point group                 C1      NOp   1
 Largest Abelian subgroup         C1      NOp   1
 Largest concise Abelian subgroup C1      NOp   1
                         Standard orientation:                         
 ---------------------------------------------------------------------
 Center     Atomic      Atomic             Coordinates (Angstroms)
 Number     Number       Type             X           Y           Z
 ---------------------------------------------------------------------
      1          6           0       -4.833642    0.470155   -0.530872
      2          6           0       -5.027995   -0.845458   -1.290901
      3          6           0       -3.702933   -1.329402   -1.891832
      4          6           0       -2.687334   -1.504531   -0.768160
      5          6           0       -2.453986   -0.166767   -0.022931
      6          6           0       -3.774369    0.338284    0.568385
      7          1           0       -3.830399   -2.271107   -2.436261
      8          1           0       -5.416675   -1.612409   -0.608131
      9          1           0       -5.768554   -0.721845   -2.087315
     10          1           0       -4.520217    1.249676   -1.238165
     11          1           0       -5.783747    0.794889   -0.094397
     12          1           0       -3.063340   -2.241838   -0.051842
     13          1           0       -2.133235    0.565160   -0.775193
     14          1           0       -4.120932   -0.353886    1.342798
     15          1           0       -3.587321    1.310107    1.038076
     16          1           0       -3.352692   -0.572476   -2.606495
     17          7           0       -1.368106   -2.003345   -1.208935
     18          6           0       -0.688024   -1.355954   -2.193021
     19          6           0       -0.669785   -2.785081   -0.343100
     20          6           0        0.664543   -1.434885   -2.314527
     21          1           0       -1.282170   -0.740860   -2.857257
     22          6           0        0.684652   -2.900561   -0.390975
     23          1           0       -1.253499   -3.259276    0.438398
     24          6           0        1.425648   -2.128080   -1.326022
     25          1           0        1.150345   -0.891412   -3.113771
     26          1           0        1.173748   -3.482596    0.377063
     27          7           0        2.750698   -2.060020   -1.280407
     28          6           0        3.493332   -2.528092   -0.100030
     29          1           0        3.360555   -3.604809    0.037796
     30          1           0        3.120347   -1.977431    0.775836
     31          6           0        3.494224   -1.010697   -1.994937
     32          1           0        3.739814   -1.350169   -3.008906
     33          1           0        2.880952   -0.106608   -2.031254
     34          7           0       -1.336894   -0.228897    0.907649
     35         16           0       -1.356583   -1.050193    2.321786
     36          8           0       -2.589671   -1.840903    2.359387
     37          8           0       -0.083917   -1.756660    2.477908
     38          6           0       -0.537490    2.646924   -0.078859
     39          6           0       -0.064131    2.090058   -1.277001
     40          6           0       -0.830787    2.152651   -2.439851
     41          6           0       -2.084598    2.763550   -2.439767
     42          6           0       -2.566118    3.317912   -1.256332
     43          6           0       -1.795371    3.258062   -0.095107
     44          1           0        0.882405    1.558485   -1.258847
     45          1           0       -0.437599    1.725028   -3.360251
     46          1           0       -2.674652    2.814571   -3.350711
     47          1           0       -3.538875    3.801627   -1.236154
     48          1           0       -2.180708    3.700897    0.821290
     49          8           0        0.743864    1.514798    1.792465
     50          1           0       -0.375578    0.010819    0.585071
     51          6           0        1.940371    0.803113    1.203746
     52          8           0        1.601625    0.190838    0.096997
     53          8           0        2.280994   -0.069107    2.266799
     54          1           0        1.578614   -0.744257    2.268595
     55          6           0        3.114819    1.811017    1.143652
     56          1           0        3.004465    2.526845    1.968512
     57          1           0        4.023679    1.239603    1.370582
     58          6           0        0.278488    2.703035    1.217263
     59          1           0       -0.374008    3.158310    1.974767
     60          1           0        1.107270    3.411917    1.069569
     61          6           0       -1.411483    0.194851    3.588713
     62          1           0       -0.521288    0.813304    3.441863
     63          1           0       -2.329596    0.771039    3.462487
     64          1           0       -1.400044   -0.316321    4.552875
     65          6           0        3.316348    2.549462   -0.177216
     66          1           0        3.525107    1.822276   -0.970998
     67          1           0        2.401121    3.064073   -0.489164
     68          6           0        4.455082    3.563976   -0.081242
     69          1           0        4.627849    4.077238   -1.032219
     70          1           0        4.230875    4.325422    0.674316
     71          1           0        5.390680    3.076657    0.215893
     72          6           0        4.930601   -2.139818   -0.426046
     73          1           0        5.546493   -2.067415    0.472075
     74          1           0        5.380164   -2.876959   -1.100815
     75          6           0        4.740879   -0.796759   -1.132845
     76          1           0        4.512001   -0.031518   -0.386129
     77          1           0        5.605263   -0.479347   -1.719886
 ---------------------------------------------------------------------
 Rotational constants (GHZ):           0.1536512           0.1001201           0.0904401
 Leave Link  202 at Thu Feb  7 12:30:30 2019, MaxMem=   104857600 cpu:               2.4 elap:               0.1
 (Enter /home/xinyan/g16/l301.exe)
 Standard basis: 6-31G(d) (6D, 7F)
 Ernie: Thresh=  0.10000D-02 Tol=  0.10000D-05 Strict=F.
 There are   626 symmetry adapted cartesian basis functions of A   symmetry.
 There are   626 symmetry adapted basis functions of A   symmetry.
   626 basis functions,  1196 primitive gaussians,   626 cartesian basis functions
   140 alpha electrons      140 beta electrons
       nuclear repulsion energy      4981.7905943558 Hartrees.
 IExCor= 4336 DFT=T Ex+Corr=M062X ExCW=0 ScaHFX=  0.540000
 ScaDFX=  1.000000  1.000000  1.000000  1.000000 ScalE2=  1.000000  1.000000
 IRadAn=      5 IRanWt=     -1 IRanGd=            0 ICorTp=0 IEmpDi=131
 NAtoms=   77 NActive=   77 NUniq=   77 SFac= 1.00D+00 NAtFMM=   60 NAOKFM=T Big=T
 Integral buffers will be    131072 words long.
 Raffenetti 2 integral format.
 Two-electron integral symmetry is turned on.
 R6Disp:  Grimme-D3 Dispersion energy=       -0.0107856252 Hartrees.
 Nuclear repulsion after empirical dispersion term =     4981.7798087306 Hartrees.
 Leave Link  301 at Thu Feb  7 12:30:30 2019, MaxMem=   104857600 cpu:               3.0 elap:               0.2
 (Enter /home/xinyan/g16/l302.exe)
 NPDir=0 NMtPBC=     1 NCelOv=     1 NCel=       1 NClECP=     1 NCelD=      1
         NCelK=      1 NCelE2=     1 NClLst=     1 CellRange=     0.0.
 One-electron integrals computed using PRISM.
 One-electron integral symmetry used in STVInt
 PrsmSu:  requested number of processors reduced to:  23 ShMem   1 Linda.
 NBasis=   626 RedAO= T EigKep=  4.41D-04  NBF=   626
 NBsUse=   626 1.00D-06 EigRej= -1.00D+00 NBFU=   626
 Precomputing XC quadrature grid using
 IXCGrd= 4 IRadAn=           5 IRanWt=          -1 IRanGd=           0 AccXCQ= 0.00D+00.
 Generated NRdTot=       0 NPtTot=           0 NUsed=           0 NTot=          32
 NSgBfM=   621   621   621   621   621 MxSgAt=    77 MxSgA2=    77.
 Leave Link  302 at Thu Feb  7 12:30:34 2019, MaxMem=   104857600 cpu:              80.5 elap:               3.5
 (Enter /home/xinyan/g16/l303.exe)
 DipDrv:  MaxL=1.
 Leave Link  303 at Thu Feb  7 12:30:34 2019, MaxMem=   104857600 cpu:               6.3 elap:               0.3
 (Enter /home/xinyan/g16/l401.exe)
 ExpMin= 1.17D-01 ExpMax= 2.19D+04 ExpMxC= 3.30D+03 IAcc=3 IRadAn=         5 AccDes= 0.00D+00
 Harris functional with IExCor= 1009 and IRadAn=       5 diagonalized for initial guess.
 HarFok:  IExCor= 1009 AccDes= 0.00D+00 IRadAn=         5 IDoV= 1 UseB2=F ITyADJ=14
 ICtDFT=  3500011 ScaDFX=  1.000000  1.000000  1.000000  1.000000
 FoFCou: FMM=F IPFlag=           0 FMFlag=      100000 FMFlg1=        2001
         NFxFlg=           0 DoJE=T BraDBF=F KetDBF=T FulRan=T
         wScrn=  0.000000 ICntrl=       500 IOpCl=  0 I1Cent=   200000004 NGrid=           0
         NMat0=    1 NMatS0=      1 NMatT0=    0 NMatD0=    1 NMtDS0=    0 NMtDT0=    0
 Petite list used in FoFCou.
 Harris En= -1990.53161651145    
 JPrj=0 DoOrth=F DoCkMO=F.
 Leave Link  401 at Thu Feb  7 12:30:38 2019, MaxMem=   104857600 cpu:              99.5 elap:               4.2
 (Enter /home/xinyan/g16/l502.exe)
 Integral symmetry usage will be decided dynamically.
 Closed shell SCF:
 Using DIIS extrapolation, IDIIS=  1040.
 NGot=   104857600 LenX=   104051656 LenY=   103659154
 Requested convergence on RMS density matrix=1.00D-08 within 128 cycles.
 Requested convergence on MAX density matrix=1.00D-06.
 Requested convergence on             energy=1.00D-06.
 No special actions if energy rises.
 Fock matrices will be formed incrementally for  20 cycles.
 Integral accuracy reduced to 1.0D-05 until final iterations.

 Cycle   1  Pass 0  IDiag  1:
 FoFJK:  IHMeth= 1 ICntrl=       0 DoSepK=F KAlg= 0 I1Cent=           0 FoldK=F
 IRaf= 990000000 NMat=       1 IRICut=       1 DoRegI=T DoRafI=F ISym2E= 0 IDoP0=0 IntGTp=1.
 FoFCou: FMM=T IPFlag=           0 FMFlag=      100000 FMFlg1=        2001
         NFxFlg=           0 DoJE=F BraDBF=F KetDBF=F FulRan=T
         wScrn=  0.000000 ICntrl=         0 IOpCl=  0 I1Cent=           0 NGrid=           0
         NMat0=    1 NMatS0=      1 NMatT0=    0 NMatD0=    1 NMtDS0=    0 NMtDT0=    0
 Symmetry not used in FoFCou.
 FMM levels:  10  Number of levels for PrismC:   9
 E= -1990.29236147723    
 DIIS: error= 2.22D-02 at cycle   1 NSaved=   1.
 NSaved= 1 IEnMin= 1 EnMin= -1990.29236147723     IErMin= 1 ErrMin= 2.22D-02
 ErrMax= 2.22D-02  0.00D+00 EMaxC= 1.00D-01 BMatC= 1.25D+00 BMatP= 1.25D+00
 IDIUse=3 WtCom= 7.78D-01 WtEn= 2.22D-01
 Coeff-Com:  0.100D+01
 Coeff-En:   0.100D+01
 Coeff:      0.100D+01
 Gap=     0.366 Goal=   None    Shift=    0.000
 GapD=    0.366 DampG=1.000 DampE=0.500 DampFc=0.5000 IDamp=-1.
 Damping current iteration by 5.00D-01
 RMSDP=3.48D-03 MaxDP=3.48D-01              OVMax= 2.04D-01

 Cycle   2  Pass 0  IDiag  1:
 RMSU=  1.73D-03    CP:  9.88D-01
 E= -1990.80620770512     Delta-E=       -0.513846227888 Rises=F Damp=T
 DIIS: error= 7.06D-03 at cycle   2 NSaved=   2.
 NSaved= 2 IEnMin= 2 EnMin= -1990.80620770512     IErMin= 2 ErrMin= 7.06D-03
 ErrMax= 7.06D-03  0.00D+00 EMaxC= 1.00D-01 BMatC= 9.37D-02 BMatP= 1.25D+00
 IDIUse=3 WtCom= 9.29D-01 WtEn= 7.06D-02
 Coeff-Com: -0.256D-01 0.103D+01
 Coeff-En:   0.000D+00 0.100D+01
 Coeff:     -0.238D-01 0.102D+01
 Gap=     0.260 Goal=   None    Shift=    0.000
 RMSDP=8.70D-04 MaxDP=7.77D-02 DE=-5.14D-01 OVMax= 1.15D-01

 Cycle   3  Pass 0  IDiag  1:
 RMSU=  8.57D-04    CP:  9.81D-01  9.35D-01
 E= -1991.31447011910     Delta-E=       -0.508262413980 Rises=F Damp=F
 DIIS: error= 7.70D-03 at cycle   3 NSaved=   3.
 NSaved= 3 IEnMin= 3 EnMin= -1991.31447011910     IErMin= 2 ErrMin= 7.06D-03
 ErrMax= 7.70D-03  0.00D+00 EMaxC= 1.00D-01 BMatC= 5.15D-02 BMatP= 9.37D-02
 IDIUse=3 WtCom= 9.23D-01 WtEn= 7.70D-02
 Coeff-Com: -0.706D-01 0.444D+00 0.626D+00
 Coeff-En:   0.000D+00 0.000D+00 0.100D+01
 Coeff:     -0.651D-01 0.410D+00 0.655D+00
 Gap=     0.241 Goal=   None    Shift=    0.000
 RMSDP=5.24D-04 MaxDP=3.67D-02 DE=-5.08D-01 OVMax= 6.26D-02

 Cycle   4  Pass 0  IDiag  1:
 RMSU=  3.43D-04    CP:  9.84D-01  1.05D+00  5.97D-01
 E= -1991.34601823149     Delta-E=       -0.031548112393 Rises=F Damp=F
 DIIS: error= 3.90D-03 at cycle   4 NSaved=   4.
 NSaved= 4 IEnMin= 4 EnMin= -1991.34601823149     IErMin= 4 ErrMin= 3.90D-03
 ErrMax= 3.90D-03  0.00D+00 EMaxC= 1.00D-01 BMatC= 1.27D-02 BMatP= 5.15D-02
 IDIUse=3 WtCom= 9.61D-01 WtEn= 3.90D-02
 Coeff-Com: -0.279D-01 0.905D-01 0.359D+00 0.578D+00
 Coeff-En:   0.000D+00 0.000D+00 0.210D+00 0.790D+00
 Coeff:     -0.268D-01 0.870D-01 0.353D+00 0.586D+00
 Gap=     0.225 Goal=   None    Shift=    0.000
 RMSDP=2.10D-04 MaxDP=1.32D-02 DE=-3.15D-02 OVMax= 2.91D-02

 Cycle   5  Pass 0  IDiag  1:
 RMSU=  8.67D-05    CP:  9.84D-01  1.03D+00  7.30D-01  5.62D-01
 E= -1991.35661298093     Delta-E=       -0.010594749438 Rises=F Damp=F
 DIIS: error= 9.84D-04 at cycle   5 NSaved=   5.
 NSaved= 5 IEnMin= 5 EnMin= -1991.35661298093     IErMin= 5 ErrMin= 9.84D-04
 ErrMax= 9.84D-04  0.00D+00 EMaxC= 1.00D-01 BMatC= 5.94D-04 BMatP= 1.27D-02
 IDIUse=3 WtCom= 9.90D-01 WtEn= 9.84D-03
 Coeff-Com: -0.914D-02 0.210D-01 0.135D+00 0.285D+00 0.568D+00
 Coeff-En:   0.000D+00 0.000D+00 0.000D+00 0.000D+00 0.100D+01
 Coeff:     -0.905D-02 0.208D-01 0.134D+00 0.282D+00 0.572D+00
 Gap=     0.226 Goal=   None    Shift=    0.000
 RMSDP=5.11D-05 MaxDP=3.80D-03 DE=-1.06D-02 OVMax= 9.10D-03

 Cycle   6  Pass 0  IDiag  1:
 RMSU=  2.75D-05    CP:  9.83D-01  1.03D+00  7.29D-01  6.33D-01  5.93D-01
 E= -1991.35712852774     Delta-E=       -0.000515546812 Rises=F Damp=F
 DIIS: error= 3.22D-04 at cycle   6 NSaved=   6.
 NSaved= 6 IEnMin= 6 EnMin= -1991.35712852774     IErMin= 6 ErrMin= 3.22D-04
 ErrMax= 3.22D-04  0.00D+00 EMaxC= 1.00D-01 BMatC= 6.00D-05 BMatP= 5.94D-04
 IDIUse=3 WtCom= 9.97D-01 WtEn= 3.22D-03
 Coeff-Com: -0.174D-02 0.167D-02 0.303D-01 0.817D-01 0.293D+00 0.595D+00
 Coeff-En:   0.000D+00 0.000D+00 0.000D+00 0.000D+00 0.492D-02 0.995D+00
 Coeff:     -0.174D-02 0.167D-02 0.302D-01 0.814D-01 0.292D+00 0.596D+00
 Gap=     0.226 Goal=   None    Shift=    0.000
 RMSDP=1.51D-05 MaxDP=8.90D-04 DE=-5.16D-04 OVMax= 2.42D-03

 Cycle   7  Pass 0  IDiag  1:
 RMSU=  9.46D-06    CP:  9.83D-01  1.03D+00  7.31D-01  6.33D-01  6.78D-01
                    CP:  6.79D-01
 E= -1991.35718580414     Delta-E=       -0.000057276395 Rises=F Damp=F
 DIIS: error= 5.43D-05 at cycle   7 NSaved=   7.
 NSaved= 7 IEnMin= 7 EnMin= -1991.35718580414     IErMin= 7 ErrMin= 5.43D-05
 ErrMax= 5.43D-05  0.00D+00 EMaxC= 1.00D-01 BMatC= 3.88D-06 BMatP= 6.00D-05
 IDIUse=1 WtCom= 1.00D+00 WtEn= 0.00D+00
 Coeff-Com:  0.181D-03-0.136D-02-0.137D-02 0.550D-02 0.713D-01 0.253D+00
 Coeff-Com:  0.673D+00
 Coeff:      0.181D-03-0.136D-02-0.137D-02 0.550D-02 0.713D-01 0.253D+00
 Coeff:      0.673D+00
 Gap=     0.226 Goal=   None    Shift=    0.000
 RMSDP=4.46D-06 MaxDP=2.43D-04 DE=-5.73D-05 OVMax= 5.36D-04

 Initial convergence to 1.0D-05 achieved.  Increase integral accuracy.
 Cycle   8  Pass 1  IDiag  1:
 E= -1991.35719273972     Delta-E=       -0.000006935584 Rises=F Damp=F
 DIIS: error= 2.06D-04 at cycle   1 NSaved=   1.
 NSaved= 1 IEnMin= 1 EnMin= -1991.35719273972     IErMin= 1 ErrMin= 2.06D-04
 ErrMax= 2.06D-04  0.00D+00 EMaxC= 1.00D-01 BMatC= 1.37D-05 BMatP= 1.37D-05
 IDIUse=3 WtCom= 9.98D-01 WtEn= 2.06D-03
 Coeff-Com:  0.100D+01
 Coeff-En:   0.100D+01
 Coeff:      0.100D+01
 Gap=     0.226 Goal=   None    Shift=    0.000
 RMSDP=4.46D-06 MaxDP=2.43D-04 DE=-6.94D-06 OVMax= 4.75D-04

 Cycle   9  Pass 1  IDiag  1:
 RMSU=  7.49D-05    CP:  1.00D+00
 E= -1991.35720521543     Delta-E=       -0.000012475710 Rises=F Damp=F
 DIIS: error= 2.11D-05 at cycle   2 NSaved=   2.
 NSaved= 2 IEnMin= 2 EnMin= -1991.35720521543     IErMin= 2 ErrMin= 2.11D-05
 ErrMax= 2.11D-05  0.00D+00 EMaxC= 1.00D-01 BMatC= 7.85D-07 BMatP= 1.37D-05
 IDIUse=1 WtCom= 1.00D+00 WtEn= 0.00D+00
 Coeff-Com:  0.661D-01 0.934D+00
 Coeff:      0.661D-01 0.934D+00
 Gap=     0.226 Goal=   None    Shift=    0.000
 RMSDP=3.88D-06 MaxDP=2.09D-04 DE=-1.25D-05 OVMax= 3.63D-04

 Cycle  10  Pass 1  IDiag  1:
 RMSU=  3.23D-06    CP:  1.00D+00  1.03D+00
 E= -1991.35720488678     Delta-E=        0.000000328645 Rises=F Damp=F
 DIIS: error= 3.53D-05 at cycle   3 NSaved=   3.
 NSaved= 3 IEnMin= 2 EnMin= -1991.35720521543     IErMin= 2 ErrMin= 2.11D-05
 ErrMax= 3.53D-05  0.00D+00 EMaxC= 1.00D-01 BMatC= 1.21D-06 BMatP= 7.85D-07
 IDIUse=1 WtCom= 1.00D+00 WtEn= 0.00D+00
 Coeff-Com: -0.147D-01 0.559D+00 0.455D+00
 Coeff:     -0.147D-01 0.559D+00 0.455D+00
 Gap=     0.226 Goal=   None    Shift=    0.000
 RMSDP=1.81D-06 MaxDP=1.27D-04 DE= 3.29D-07 OVMax= 2.32D-04

 Cycle  11  Pass 1  IDiag  1:
 RMSU=  6.54D-07    CP:  1.00D+00  1.03D+00  4.85D-01
 E= -1991.35720590454     Delta-E=       -0.000001017752 Rises=F Damp=F
 DIIS: error= 4.35D-06 at cycle   4 NSaved=   4.
 NSaved= 4 IEnMin= 4 EnMin= -1991.35720590454     IErMin= 4 ErrMin= 4.35D-06
 ErrMax= 4.35D-06  0.00D+00 EMaxC= 1.00D-01 BMatC= 1.25D-08 BMatP= 7.85D-07
 IDIUse=1 WtCom= 1.00D+00 WtEn= 0.00D+00
 Coeff-Com: -0.830D-02 0.258D+00 0.222D+00 0.529D+00
 Coeff:     -0.830D-02 0.258D+00 0.222D+00 0.529D+00
 Gap=     0.226 Goal=   None    Shift=    0.000
 RMSDP=2.32D-07 MaxDP=1.28D-05 DE=-1.02D-06 OVMax= 3.86D-05

 Cycle  12  Pass 1  IDiag  1:
 RMSU=  2.07D-07    CP:  1.00D+00  1.03D+00  5.06D-01  8.77D-01
 E= -1991.35720591613     Delta-E=       -0.000000011597 Rises=F Damp=F
 DIIS: error= 1.46D-06 at cycle   5 NSaved=   5.
 NSaved= 5 IEnMin= 5 EnMin= -1991.35720591613     IErMin= 5 ErrMin= 1.46D-06
 ErrMax= 1.46D-06  0.00D+00 EMaxC= 1.00D-01 BMatC= 1.01D-09 BMatP= 1.25D-08
 IDIUse=1 WtCom= 1.00D+00 WtEn= 0.00D+00
 Coeff-Com: -0.839D-03 0.108D-01 0.116D-01 0.206D+00 0.772D+00
 Coeff:     -0.839D-03 0.108D-01 0.116D-01 0.206D+00 0.772D+00
 Gap=     0.226 Goal=   None    Shift=    0.000
 RMSDP=8.84D-08 MaxDP=4.42D-06 DE=-1.16D-08 OVMax= 1.19D-05

 Cycle  13  Pass 1  IDiag  1:
 RMSU=  6.62D-08    CP:  1.00D+00  1.03D+00  5.07D-01  9.56D-01  8.87D-01
 E= -1991.35720591718     Delta-E=       -0.000000001042 Rises=F Damp=F
 DIIS: error= 5.05D-07 at cycle   6 NSaved=   6.
 NSaved= 6 IEnMin= 6 EnMin= -1991.35720591718     IErMin= 6 ErrMin= 5.05D-07
 ErrMax= 5.05D-07  0.00D+00 EMaxC= 1.00D-01 BMatC= 2.66D-10 BMatP= 1.01D-09
 IDIUse=1 WtCom= 1.00D+00 WtEn= 0.00D+00
 Coeff-Com:  0.803D-03-0.332D-01-0.276D-01 0.389D-01 0.424D+00 0.597D+00
 Coeff:      0.803D-03-0.332D-01-0.276D-01 0.389D-01 0.424D+00 0.597D+00
 Gap=     0.226 Goal=   None    Shift=    0.000
 RMSDP=3.73D-08 MaxDP=1.76D-06 DE=-1.04D-09 OVMax= 5.16D-06

 Cycle  14  Pass 1  IDiag  1:
 RMSU=  2.66D-08    CP:  1.00D+00  1.03D+00  5.08D-01  9.75D-01  9.68D-01
                    CP:  7.74D-01
 E= -1991.35720591740     Delta-E=       -0.000000000224 Rises=F Damp=F
 DIIS: error= 1.37D-07 at cycle   7 NSaved=   7.
 NSaved= 7 IEnMin= 7 EnMin= -1991.35720591740     IErMin= 7 ErrMin= 1.37D-07
 ErrMax= 1.37D-07  0.00D+00 EMaxC= 1.00D-01 BMatC= 1.68D-11 BMatP= 2.66D-10
 IDIUse=1 WtCom= 1.00D+00 WtEn= 0.00D+00
 Coeff-Com:  0.416D-03-0.153D-01-0.132D-01 0.200D-02 0.121D+00 0.264D+00
 Coeff-Com:  0.640D+00
 Coeff:      0.416D-03-0.153D-01-0.132D-01 0.200D-02 0.121D+00 0.264D+00
 Coeff:      0.640D+00
 Gap=     0.226 Goal=   None    Shift=    0.000
 RMSDP=9.73D-09 MaxDP=5.45D-07 DE=-2.24D-10 OVMax= 1.71D-06

 SCF Done:  E(RM062X) =  -1991.35720592     A.U. after   14 cycles
            NFock= 14  Conv=0.97D-08     -V/T= 2.0076
 KE= 1.976404181190D+03 PE=-1.461580931955D+04 EE= 5.666268123710D+03
 Leave Link  502 at Thu Feb  7 12:33:04 2019, MaxMem=   104857600 cpu:            3488.5 elap:             145.7
 (Enter /home/xinyan/g16/l601.exe)
 Copying SCF densities to generalized density rwf, IOpCl= 0 IROHF=0.

 **********************************************************************

            Population analysis using the SCF density.

 **********************************************************************

 Orbital symmetries:
       Occupied  (A) (A) (A) (A) (A) (A) (A) (A) (A) (A) (A) (A)
                 (A) (A) (A) (A) (A) (A) (A) (A) (A) (A) (A) (A)
                 (A) (A) (A) (A) (A) (A) (A) (A) (A) (A) (A) (A)
                 (A) (A) (A) (A) (A) (A) (A) (A) (A) (A) (A) (A)
                 (A) (A) (A) (A) (A) (A) (A) (A) (A) (A) (A) (A)
                 (A) (A) (A) (A) (A) (A) (A) (A) (A) (A) (A) (A)
                 (A) (A) (A) (A) (A) (A) (A) (A) (A) (A) (A) (A)
                 (A) (A) (A) (A) (A) (A) (A) (A) (A) (A) (A) (A)
                 (A) (A) (A) (A) (A) (A) (A) (A) (A) (A) (A) (A)
                 (A) (A) (A) (A) (A) (A) (A) (A) (A) (A) (A) (A)
                 (A) (A) (A) (A) (A) (A) (A) (A) (A) (A) (A) (A)
                 (A) (A) (A) (A) (A) (A) (A) (A)
       Virtual   (A) (A) (A) (A) (A) (A) (A) (A) (A) (A) (A) (A)
                 (A) (A) (A) (A) (A) (A) (A) (A) (A) (A) (A) (A)
                 (A) (A) (A) (A) (A) (A) (A) (A) (A) (A) (A) (A)
                 (A) (A) (A) (A) (A) (A) (A) (A) (A) (A) (A) (A)
                 (A) (A) (A) (A) (A) (A) (A) (A) (A) (A) (A) (A)
                 (A) (A) (A) (A) (A) (A) (A) (A) (A) (A) (A) (A)
                 (A) (A) (A) (A) (A) (A) (A) (A) (A) (A) (A) (A)
                 (A) (A) (A) (A) (A) (A) (A) (A) (A) (A) (A) (A)
                 (A) (A) (A) (A) (A) (A) (A) (A) (A) (A) (A) (A)
                 (A) (A) (A) (A) (A) (A) (A) (A) (A) (A) (A) (A)
                 (A) (A) (A) (A) (A) (A) (A) (A) (A) (A) (A) (A)
                 (A) (A) (A) (A) (A) (A) (A) (A) (A) (A) (A) (A)
                 (A) (A) (A) (A) (A) (A) (A) (A) (A) (A) (A) (A)
                 (A) (A) (A) (A) (A) (A) (A) (A) (A) (A) (A) (A)
                 (A) (A) (A) (A) (A) (A) (A) (A) (A) (A) (A) (A)
                 (A) (A) (A) (A) (A) (A) (A) (A) (A) (A) (A) (A)
                 (A) (A) (A) (A) (A) (A) (A) (A) (A) (A) (A) (A)
                 (A) (A) (A) (A) (A) (A) (A) (A) (A) (A) (A) (A)
                 (A) (A) (A) (A) (A) (A) (A) (A) (A) (A) (A) (A)
                 (A) (A) (A) (A) (A) (A) (A) (A) (A) (A) (A) (A)
                 (A) (A) (A) (A) (A) (A) (A) (A) (A) (A) (A) (A)
                 (A) (A) (A) (A) (A) (A) (A) (A) (A) (A) (A) (A)
                 (A) (A) (A) (A) (A) (A) (A) (A) (A) (A) (A) (A)
                 (A) (A) (A) (A) (A) (A) (A) (A) (A) (A) (A) (A)
                 (A) (A) (A) (A) (A) (A) (A) (A) (A) (A) (A) (A)
                 (A) (A) (A) (A) (A) (A) (A) (A) (A) (A) (A) (A)
                 (A) (A) (A) (A) (A) (A) (A) (A) (A) (A) (A) (A)
                 (A) (A) (A) (A) (A) (A) (A) (A) (A) (A) (A) (A)
                 (A) (A) (A) (A) (A) (A) (A) (A) (A) (A) (A) (A)
                 (A) (A) (A) (A) (A) (A) (A) (A) (A) (A) (A) (A)
                 (A) (A) (A) (A) (A) (A) (A) (A) (A) (A) (A) (A)
                 (A) (A) (A) (A) (A) (A) (A) (A) (A) (A) (A) (A)
                 (A) (A) (A) (A) (A) (A) (A) (A) (A) (A) (A) (A)
                 (A) (A) (A) (A) (A) (A) (A) (A) (A) (A) (A) (A)
                 (A) (A) (A) (A) (A) (A) (A) (A) (A) (A) (A) (A)
                 (A) (A) (A) (A) (A) (A) (A) (A) (A) (A) (A) (A)
                 (A) (A) (A) (A) (A) (A) (A) (A) (A) (A) (A) (A)
                 (A) (A) (A) (A) (A) (A) (A) (A) (A) (A) (A) (A)
                 (A) (A) (A) (A) (A) (A) (A) (A) (A) (A) (A) (A)
                 (A) (A) (A) (A) (A) (A) (A) (A) (A) (A) (A) (A)
                 (A) (A) (A) (A) (A) (A)
 The electronic state is 1-A.
 Alpha  occ. eigenvalues --  -90.14526 -19.62101 -19.62031 -19.58495 -19.56641
 Alpha  occ. eigenvalues --  -19.50791 -14.85280 -14.80327 -14.76476 -10.63367
 Alpha  occ. eigenvalues --  -10.62776 -10.62260 -10.62023 -10.60941 -10.59646
 Alpha  occ. eigenvalues --  -10.58188 -10.57959 -10.57881 -10.57173 -10.56884
 Alpha  occ. eigenvalues --  -10.56821 -10.55836 -10.55791 -10.54969 -10.54963
 Alpha  occ. eigenvalues --  -10.54894 -10.54790 -10.54638 -10.54555 -10.54517
 Alpha  occ. eigenvalues --  -10.54430 -10.54354 -10.52971 -10.51272 -10.51227
 Alpha  occ. eigenvalues --  -10.49489  -8.45501  -6.37724  -6.37691  -6.37536
 Alpha  occ. eigenvalues --   -1.22328  -1.13633  -1.13200  -1.10578  -1.09224
 Alpha  occ. eigenvalues --   -1.05730  -1.02154  -0.99173  -0.95856  -0.95012
 Alpha  occ. eigenvalues --   -0.93561  -0.90317  -0.88743  -0.86198  -0.85515
 Alpha  occ. eigenvalues --   -0.84846  -0.84779  -0.84060  -0.83074  -0.82910
 Alpha  occ. eigenvalues --   -0.76698  -0.76052  -0.75773  -0.74233  -0.73037
 Alpha  occ. eigenvalues --   -0.71768  -0.68288  -0.68147  -0.67903  -0.67389
 Alpha  occ. eigenvalues --   -0.66622  -0.65351  -0.64822  -0.63518  -0.60504
 Alpha  occ. eigenvalues --   -0.60365  -0.59669  -0.59459  -0.57731  -0.57716
 Alpha  occ. eigenvalues --   -0.57283  -0.56485  -0.55824  -0.55139  -0.54263
 Alpha  occ. eigenvalues --   -0.53611  -0.52828  -0.52602  -0.52487  -0.51955
 Alpha  occ. eigenvalues --   -0.51597  -0.50918  -0.50469  -0.49929  -0.49408
 Alpha  occ. eigenvalues --   -0.49124  -0.48959  -0.48233  -0.48122  -0.47860
 Alpha  occ. eigenvalues --   -0.47777  -0.47545  -0.47044  -0.46295  -0.46031
 Alpha  occ. eigenvalues --   -0.45019  -0.44747  -0.44254  -0.43811  -0.43278
 Alpha  occ. eigenvalues --   -0.42593  -0.42188  -0.41239  -0.41173  -0.40982
 Alpha  occ. eigenvalues --   -0.40822  -0.40555  -0.39973  -0.39776  -0.39255
 Alpha  occ. eigenvalues --   -0.39202  -0.39091  -0.38395  -0.38175  -0.37766
 Alpha  occ. eigenvalues --   -0.37313  -0.36660  -0.36448  -0.35944  -0.34949
 Alpha  occ. eigenvalues --   -0.34425  -0.34110  -0.31789  -0.31223  -0.29803
 Alpha  occ. eigenvalues --   -0.28877  -0.28597  -0.27724  -0.24339  -0.24076
 Alpha virt. eigenvalues --   -0.01459   0.00384   0.03482   0.03718   0.10118
 Alpha virt. eigenvalues --    0.10766   0.11496   0.12367   0.13153   0.13341
 Alpha virt. eigenvalues --    0.14196   0.14363   0.14737   0.15312   0.15582
 Alpha virt. eigenvalues --    0.16150   0.16624   0.16891   0.17162   0.17741
 Alpha virt. eigenvalues --    0.17944   0.18245   0.18352   0.18693   0.19002
 Alpha virt. eigenvalues --    0.19211   0.19615   0.20007   0.20090   0.20203
 Alpha virt. eigenvalues --    0.20594   0.20892   0.21212   0.21360   0.21506
 Alpha virt. eigenvalues --    0.22071   0.22451   0.22757   0.23080   0.23670
 Alpha virt. eigenvalues --    0.23811   0.24167   0.24579   0.24662   0.24782
 Alpha virt. eigenvalues --    0.25218   0.25468   0.25834   0.26236   0.26755
 Alpha virt. eigenvalues --    0.27070   0.27616   0.27870   0.28401   0.28726
 Alpha virt. eigenvalues --    0.29004   0.29308   0.29641   0.30717   0.30771
 Alpha virt. eigenvalues --    0.31188   0.31579   0.31838   0.32339   0.32907
 Alpha virt. eigenvalues --    0.33490   0.34338   0.35389   0.35437   0.35827
 Alpha virt. eigenvalues --    0.36405   0.37447   0.37523   0.37954   0.38837
 Alpha virt. eigenvalues --    0.39892   0.40450   0.40612   0.42787   0.42977
 Alpha virt. eigenvalues --    0.44162   0.44583   0.47402   0.47835   0.48889
 Alpha virt. eigenvalues --    0.49459   0.51001   0.52610   0.53328   0.54806
 Alpha virt. eigenvalues --    0.55139   0.55396   0.56090   0.56875   0.57056
 Alpha virt. eigenvalues --    0.57392   0.58091   0.58571   0.59120   0.59532
 Alpha virt. eigenvalues --    0.59728   0.59848   0.60352   0.60511   0.60736
 Alpha virt. eigenvalues --    0.61074   0.61535   0.62362   0.62511   0.62871
 Alpha virt. eigenvalues --    0.63659   0.63936   0.64430   0.64819   0.65683
 Alpha virt. eigenvalues --    0.66027   0.66340   0.66952   0.67527   0.67937
 Alpha virt. eigenvalues --    0.68213   0.68927   0.69187   0.69998   0.70740
 Alpha virt. eigenvalues --    0.70842   0.71444   0.71794   0.72852   0.73300
 Alpha virt. eigenvalues --    0.73715   0.74334   0.74771   0.74845   0.75879
 Alpha virt. eigenvalues --    0.76550   0.77272   0.77835   0.78447   0.78981
 Alpha virt. eigenvalues --    0.79496   0.79958   0.80187   0.80626   0.80926
 Alpha virt. eigenvalues --    0.81803   0.82097   0.82817   0.83960   0.84541
 Alpha virt. eigenvalues --    0.84888   0.85286   0.85686   0.85808   0.86723
 Alpha virt. eigenvalues --    0.87811   0.88384   0.89028   0.89385   0.89702
 Alpha virt. eigenvalues --    0.89789   0.90138   0.90710   0.91206   0.91296
 Alpha virt. eigenvalues --    0.91362   0.92062   0.92641   0.92801   0.93300
 Alpha virt. eigenvalues --    0.93550   0.94026   0.94642   0.94883   0.95203
 Alpha virt. eigenvalues --    0.95661   0.95944   0.96701   0.96708   0.97038
 Alpha virt. eigenvalues --    0.97133   0.97762   0.97974   0.98335   0.98558
 Alpha virt. eigenvalues --    0.99144   0.99488   0.99751   1.00180   1.00922
 Alpha virt. eigenvalues --    1.01261   1.01676   1.02291   1.02637   1.03070
 Alpha virt. eigenvalues --    1.03150   1.04226   1.04323   1.04580   1.05660
 Alpha virt. eigenvalues --    1.06162   1.06914   1.07809   1.08159   1.08916
 Alpha virt. eigenvalues --    1.09815   1.10621   1.11132   1.11450   1.11933
 Alpha virt. eigenvalues --    1.13149   1.13481   1.14639   1.14782   1.15677
 Alpha virt. eigenvalues --    1.16139   1.17336   1.18443   1.18702   1.19022
 Alpha virt. eigenvalues --    1.19777   1.20024   1.20807   1.21283   1.21608
 Alpha virt. eigenvalues --    1.22233   1.23802   1.24081   1.25121   1.25418
 Alpha virt. eigenvalues --    1.26145   1.26834   1.28378   1.28924   1.29807
 Alpha virt. eigenvalues --    1.30984   1.31614   1.32027   1.32823   1.33278
 Alpha virt. eigenvalues --    1.33707   1.34532   1.35246   1.36114   1.36733
 Alpha virt. eigenvalues --    1.37072   1.38445   1.38909   1.40282   1.41067
 Alpha virt. eigenvalues --    1.41859   1.42433   1.43657   1.44553   1.46643
 Alpha virt. eigenvalues --    1.47117   1.48062   1.48265   1.49300   1.50036
 Alpha virt. eigenvalues --    1.51098   1.51819   1.52514   1.52752   1.54323
 Alpha virt. eigenvalues --    1.54894   1.55075   1.55771   1.56965   1.57177
 Alpha virt. eigenvalues --    1.57611   1.58184   1.60499   1.60730   1.61186
 Alpha virt. eigenvalues --    1.62076   1.62667   1.63444   1.65403   1.67159
 Alpha virt. eigenvalues --    1.69108   1.69503   1.70098   1.71667   1.72873
 Alpha virt. eigenvalues --    1.73831   1.74929   1.75786   1.76911   1.77518
 Alpha virt. eigenvalues --    1.78377   1.80057   1.80535   1.80959   1.82330
 Alpha virt. eigenvalues --    1.83706   1.83971   1.85302   1.85506   1.85726
 Alpha virt. eigenvalues --    1.86505   1.87076   1.87640   1.87885   1.88491
 Alpha virt. eigenvalues --    1.89592   1.90039   1.90473   1.90684   1.91732
 Alpha virt. eigenvalues --    1.92621   1.93738   1.94162   1.94664   1.94956
 Alpha virt. eigenvalues --    1.95087   1.95920   1.96533   1.97311   1.97517
 Alpha virt. eigenvalues --    1.98785   1.99122   1.99627   1.99944   2.00735
 Alpha virt. eigenvalues --    2.01606   2.02219   2.02521   2.02798   2.04220
 Alpha virt. eigenvalues --    2.05143   2.05846   2.06085   2.06852   2.07171
 Alpha virt. eigenvalues --    2.07397   2.07679   2.08750   2.09417   2.09913
 Alpha virt. eigenvalues --    2.10018   2.10683   2.11646   2.11826   2.12652
 Alpha virt. eigenvalues --    2.12899   2.14168   2.14409   2.14654   2.15569
 Alpha virt. eigenvalues --    2.15869   2.16417   2.17481   2.18677   2.19138
 Alpha virt. eigenvalues --    2.19691   2.20035   2.20584   2.21326   2.22108
 Alpha virt. eigenvalues --    2.22843   2.23218   2.23321   2.23846   2.24320
 Alpha virt. eigenvalues --    2.25046   2.25423   2.25868   2.27441   2.27629
 Alpha virt. eigenvalues --    2.29023   2.29236   2.30339   2.30618   2.31691
 Alpha virt. eigenvalues --    2.31828   2.34006   2.34702   2.35115   2.35432
 Alpha virt. eigenvalues --    2.35836   2.37211   2.37491   2.38330   2.38848
 Alpha virt. eigenvalues --    2.39104   2.40626   2.41018   2.41169   2.42267
 Alpha virt. eigenvalues --    2.43378   2.44398   2.45452   2.46275   2.46975
 Alpha virt. eigenvalues --    2.49026   2.50167   2.51830   2.52258   2.52622
 Alpha virt. eigenvalues --    2.53941   2.54197   2.55585   2.56852   2.59889
 Alpha virt. eigenvalues --    2.60985   2.61978   2.62119   2.62715   2.63364
 Alpha virt. eigenvalues --    2.64454   2.64733   2.65525   2.67028   2.68327
 Alpha virt. eigenvalues --    2.68958   2.69439   2.70067   2.71704   2.72628
 Alpha virt. eigenvalues --    2.73170   2.74429   2.76117   2.76538   2.77706
 Alpha virt. eigenvalues --    2.79441   2.80092   2.80603   2.80674   2.81623
 Alpha virt. eigenvalues --    2.83499   2.85435   2.86119   2.86760   2.88353
 Alpha virt. eigenvalues --    2.89415   2.91042   2.92740   2.93737   2.96862
 Alpha virt. eigenvalues --    2.99869   3.00482   3.02882   3.05311   3.10600
 Alpha virt. eigenvalues --    3.14781   3.16621   3.23957   3.41453   3.42710
 Alpha virt. eigenvalues --    3.94948   4.01228   4.04096   4.09155   4.10854
 Alpha virt. eigenvalues --    4.15434   4.16300   4.17110   4.18122   4.19456
 Alpha virt. eigenvalues --    4.20938   4.22750   4.24281   4.26055   4.27616
 Alpha virt. eigenvalues --    4.29251   4.31977   4.32813   4.34510   4.34843
 Alpha virt. eigenvalues --    4.39897   4.40095   4.41384   4.43685   4.46356
 Alpha virt. eigenvalues --    4.47891   4.55377   4.58124   4.59374   4.61114
 Alpha virt. eigenvalues --    4.63182   4.66141   4.73492   4.75472   4.76710
 Alpha virt. eigenvalues --    4.79703
          Condensed to atoms (all electrons):
 Mulliken charges:
               1
     1  C   -0.306360
     2  C   -0.307457
     3  C   -0.309734
     4  C   -0.059188
     5  C    0.055528
     6  C   -0.310059
     7  H    0.174798
     8  H    0.163067
     9  H    0.166305
    10  H    0.150735
    11  H    0.164484
    12  H    0.207772
    13  H    0.174914
    14  H    0.194956
    15  H    0.163474
    16  H    0.155451
    17  N   -0.433868
    18  C    0.070074
    19  C    0.066691
    20  C   -0.203053
    21  H    0.205522
    22  C   -0.211301
    23  H    0.243805
    24  C    0.447644
    25  H    0.192488
    26  H    0.211083
    27  N   -0.523433
    28  C   -0.168967
    29  H    0.168729
    30  H    0.226165
    31  C   -0.151810
    32  H    0.163185
    33  H    0.206495
    34  N   -0.805984
    35  S    1.248568
    36  O   -0.606974
    37  O   -0.600160
    38  C    0.073863
    39  C   -0.190712
    40  C   -0.190953
    41  C   -0.172516
    42  C   -0.164495
    43  C   -0.210002
    44  H    0.220931
    45  H    0.140217
    46  H    0.154986
    47  H    0.158510
    48  H    0.152245
    49  O   -0.561040
    50  H    0.442595
    51  C    0.719849
    52  O   -0.716647
    53  O   -0.714830
    54  H    0.438767
    55  C   -0.338256
    56  H    0.146626
    57  H    0.150352
    58  C   -0.085942
    59  H    0.136479
    60  H    0.149372
    61  C   -0.664255
    62  H    0.276722
    63  H    0.197742
    64  H    0.219128
    65  C   -0.288895
    66  H    0.134610
    67  H    0.144291
    68  C   -0.473674
    69  H    0.148239
    70  H    0.152212
    71  H    0.147128
    72  C   -0.332914
    73  H    0.186315
    74  H    0.161779
    75  C   -0.341492
    76  H    0.200700
    77  H    0.169381
 Sum of Mulliken charges =  -0.00000
 Mulliken charges with hydrogens summed into heavy atoms:
               1
     1  C    0.008859
     2  C    0.021915
     3  C    0.020515
     4  C    0.148584
     5  C    0.230442
     6  C    0.048372
    17  N   -0.433868
    18  C    0.275596
    19  C    0.310495
    20  C   -0.010566
    22  C   -0.000218
    24  C    0.447644
    27  N   -0.523433
    28  C    0.225927
    31  C    0.217870
    34  N   -0.363389
    35  S    1.248568
    36  O   -0.606974
    37  O   -0.600160
    38  C    0.073863
    39  C    0.030219
    40  C   -0.050736
    41  C   -0.017530
    42  C   -0.005984
    43  C   -0.057758
    49  O   -0.561040
    51  C    0.719849
    52  O   -0.716647
    53  O   -0.276063
    55  C   -0.041278
    58  C    0.199910
    61  C    0.029337
    65  C   -0.009994
    68  C   -0.026095
    72  C    0.015180
    75  C    0.028589
 Electronic spatial extent (au):  <R**2>=          14419.5917
 Charge=             -0.0000 electrons
 Dipole moment (field-independent basis, Debye):
    X=             -3.0774    Y=             -2.1597    Z=             -6.0929  Tot=              7.1595
 Quadrupole moment (field-independent basis, Debye-Ang):
   XX=           -206.9962   YY=           -221.7356   ZZ=           -219.9860
   XY=            -12.8203   XZ=             -4.6452   YZ=             10.2962
 Traceless Quadrupole moment (field-independent basis, Debye-Ang):
   XX=              9.2431   YY=             -5.4964   ZZ=             -3.7467
   XY=            -12.8203   XZ=             -4.6452   YZ=             10.2962
 Octapole moment (field-independent basis, Debye-Ang**2):
  XXX=              8.4667  YYY=            -53.3386  ZZZ=             13.5370  XYY=              6.1588
  XXY=            -26.9528  XXZ=            -41.3436  XZZ=            -22.3508  YZZ=             13.4582
  YYZ=             20.9279  XYZ=            -18.9820
 Hexadecapole moment (field-independent basis, Debye-Ang**3):
 XXXX=          -9897.4286 YYYY=          -5429.3861 ZZZZ=          -3582.9577 XXXY=           -204.8166
 XXXZ=             -5.6900 YYYX=            -85.6009 YYYZ=             44.3326 ZZZX=            -99.4562
 ZZZY=             10.5537 XXYY=          -2565.1567 XXZZ=          -2346.0678 YYZZ=          -1608.7212
 XXYZ=             46.7641 YYXZ=             45.6526 ZZXY=            -58.7806
 N-N= 4.981779808731D+03 E-N=-1.461580936691D+04  KE= 1.976404181190D+03
 No NMR shielding tensors so no spin-rotation constants.
 Leave Link  601 at Thu Feb  7 12:33:05 2019, MaxMem=   104857600 cpu:              21.7 elap:               1.0
 (Enter /home/xinyan/g16/l701.exe)
 ... and contract with generalized density number  0.
 Compute integral first derivatives.
 R6Disp: Adding Grimme-D3 dispersion energy 1st derivatives to the gradient.
 Leave Link  701 at Thu Feb  7 12:33:06 2019, MaxMem=   104857600 cpu:              23.1 elap:               1.0
 (Enter /home/xinyan/g16/l702.exe)
 L702 exits ... SP integral derivatives will be done elsewhere.
 Leave Link  702 at Thu Feb  7 12:33:06 2019, MaxMem=   104857600 cpu:               1.4 elap:               0.1
 (Enter /home/xinyan/g16/l703.exe)
 Integral derivatives from FoFJK, PRISM(SPDF).
 Compute integral first derivatives, UseDBF=F ICtDFT=           0.
 Calling FoFJK, ICntrl=      2127 FMM=T ISym2X=0 I1Cent= 0 IOpClX= 0 NMat=1 NMatS=1 NMatT=0.
 FoFJK:  IHMeth= 1 ICntrl=    2127 DoSepK=F KAlg= 0 I1Cent=           0 FoldK=F
 IRaf=         0 NMat=       1 IRICut=       1 DoRegI=T DoRafI=F ISym2E= 0 IDoP0=0 IntGTp=1.
 FoFCou: FMM=T IPFlag=           0 FMFlag=      100000 FMFlg1=        2001
         NFxFlg=           0 DoJE=F BraDBF=F KetDBF=F FulRan=T
         wScrn=  0.000000 ICntrl=      2127 IOpCl=  0 I1Cent=           0 NGrid=           0
         NMat0=    1 NMatS0=      1 NMatT0=    0 NMatD0=    1 NMtDS0=    0 NMtDT0=    0
 Symmetry not used in FoFCou.
 FMM levels:  10  Number of levels for PrismC:   9
 Leave Link  703 at Thu Feb  7 12:33:42 2019, MaxMem=   104857600 cpu:             829.6 elap:              35.6
 (Enter /home/xinyan/g16/l716.exe)
 Dipole        =-1.21075249D+00-8.49672863D-01-2.39713384D+00
 ***** Axes restored to original set *****
 -------------------------------------------------------------------
 Center     Atomic                   Forces (Hartrees/Bohr)
 Number     Number              X              Y              Z
 -------------------------------------------------------------------
      1        6           0.000050588    0.000008588    0.000000772
      2        6           0.000044620    0.000016196    0.000048123
      3        6           0.000025096   -0.000017003   -0.000001930
      4        6           0.000038093    0.000027532   -0.000014117
      5        6          -0.000013920   -0.000034739   -0.000037095
      6        6           0.000081412    0.000011710   -0.000019386
      7        1          -0.000022752   -0.000002112   -0.000006979
      8        1           0.000033776    0.000036235    0.000024299
      9        1           0.000012911    0.000035790    0.000033777
     10        1           0.000051996    0.000009943   -0.000018229
     11        1           0.000087580    0.000038840    0.000025575
     12        1           0.000032623   -0.000053730    0.000061712
     13        1           0.000087173   -0.000072604   -0.000058312
     14        1           0.000103076    0.000056240   -0.000024807
     15        1           0.000126595    0.000010405   -0.000026479
     16        1          -0.000005910   -0.000012815   -0.000051057
     17        7          -0.000000633   -0.000038856   -0.000026481
     18        6           0.000009818   -0.000060367   -0.000072450
     19        6           0.000011239   -0.000034942   -0.000021635
     20        6           0.000005171   -0.000016326   -0.000005664
     21        1           0.000036046   -0.000004299   -0.000015787
     22        6           0.000016287   -0.000016555   -0.000000435
     23        1          -0.000000449   -0.000050980   -0.000052272
     24        6          -0.000008669   -0.000048005    0.000015290
     25        1           0.000045533    0.000011280    0.000016146
     26        1           0.000014969   -0.000023845   -0.000000488
     27        7           0.000026609    0.000072869    0.000029940
     28        6          -0.000005231    0.000033798    0.000079535
     29        1           0.000000954    0.000036434    0.000065943
     30        1          -0.000024674    0.000051968    0.000064993
     31        6          -0.000025396    0.000053910    0.000071996
     32        1          -0.000031938    0.000099334    0.000070812
     33        1           0.000011472    0.000086936    0.000130023
     34        7           0.000719849    0.000147292   -0.000313563
     35       16           0.000043297   -0.000014132   -0.000109875
     36        8           0.000001512   -0.000070557   -0.000058838
     37        8           0.000047906   -0.000046168   -0.000063223
     38        6          -0.000014443    0.000067856    0.000047120
     39        6          -0.000010606    0.000123414    0.000011772
     40        6          -0.000039473    0.000083680    0.000048409
     41        6          -0.000053126    0.000054280    0.000071511
     42        6          -0.000048343   -0.000017232    0.000087242
     43        6          -0.000026181    0.000013339    0.000054378
     44        1           0.000009914    0.000040016    0.000002891
     45        1          -0.000015448    0.000155566    0.000029756
     46        1          -0.000061858    0.000054204    0.000080972
     47        1          -0.000073636   -0.000043541    0.000110731
     48        1          -0.000042471   -0.000042987    0.000083238
     49        8           0.000177357   -0.000067524    0.000283233
     50        1          -0.000369808   -0.000277352    0.000138216
     51        6          -0.000464652    0.000131622   -0.000003664
     52        8          -0.000182969   -0.000116923    0.000002412
     53        8          -0.000181443   -0.000012211    0.000000980
     54        1           0.000034666    0.000110783    0.000134726
     55        6          -0.000031293   -0.000037024   -0.000156248
     56        1           0.000042075    0.000025108    0.000000759
     57        1           0.000000228   -0.000130566   -0.000095367
     58        6           0.000056783    0.000135331   -0.000087496
     59        1           0.000004107    0.000117897    0.000026898
     60        1          -0.000013117    0.000049435    0.000003511
     61        6          -0.000024571   -0.000023401   -0.000061562
     62        1          -0.000030104    0.000016907   -0.000021204
     63        1          -0.000019739   -0.000026114   -0.000116600
     64        1          -0.000082270   -0.000008096   -0.000058332
     65        6          -0.000090715   -0.000090555   -0.000083292
     66        1          -0.000158060   -0.000073167   -0.000078360
     67        1          -0.000025061   -0.000002961    0.000002550
     68        6           0.000021706   -0.000147766   -0.000124578
     69        1          -0.000013585   -0.000162936   -0.000151254
     70        1           0.000088603   -0.000148758   -0.000129161
     71        1          -0.000028012   -0.000206245   -0.000189004
     72        6           0.000010002    0.000038859    0.000059262
     73        1          -0.000008774    0.000042769    0.000066571
     74        1          -0.000009396    0.000048906    0.000074674
     75        6          -0.000020439    0.000005093    0.000076541
     76        1           0.000066866    0.000077058    0.000069322
     77        1           0.000000658    0.000015969    0.000048611
 -------------------------------------------------------------------
 Cartesian Forces:  Max     0.000719849 RMS     0.000096339
 Z-matrix is all fixed cartesians, so copy forces.
 Leave Link  716 at Thu Feb  7 12:33:42 2019, MaxMem=   104857600 cpu:               1.8 elap:               0.1
 (Enter /home/xinyan/g16/l103.exe)

 GradGradGradGradGradGradGradGradGradGradGradGradGradGradGradGradGradGrad
 Berny optimization.
 Search for a local minimum.
 Step number   1 out of a maximum of    2
 All quantities printed in internal units (Hartrees-Bohrs-Radians)
 Second derivative matrix not updated -- first step.
 ITU=  0
     Eigenvalues ---    0.00000   0.00000   0.00000   0.00000   0.00000
     Eigenvalues ---    0.00000   0.00004   0.00013   0.00018   0.00021
     Eigenvalues ---    0.00036   0.00038   0.00085   0.00092   0.00113
     Eigenvalues ---    0.00137   0.00137   0.00204   0.00234   0.00292
     Eigenvalues ---    0.00391   0.00410   0.00447   0.00505   0.00587
     Eigenvalues ---    0.00600   0.00621   0.00697   0.00710   0.00843
     Eigenvalues ---    0.00964   0.01114   0.01156   0.01492   0.01649
     Eigenvalues ---    0.01675   0.01892   0.01896   0.02041   0.02148
     Eigenvalues ---    0.02283   0.02305   0.02454   0.02528   0.02875
     Eigenvalues ---    0.02959   0.03075   0.03091   0.03219   0.03459
     Eigenvalues ---    0.03533   0.03732   0.03886   0.04187   0.04306
     Eigenvalues ---    0.04367   0.04801   0.04837   0.04846   0.04928
     Eigenvalues ---    0.05023   0.05066   0.05115   0.05121   0.05147
     Eigenvalues ---    0.05180   0.05249   0.05351   0.05469   0.05586
     Eigenvalues ---    0.05647   0.05672   0.05719   0.05747   0.05795
     Eigenvalues ---    0.06004   0.06131   0.06323   0.06548   0.06565
     Eigenvalues ---    0.06831   0.06846   0.06972   0.07015   0.07123
     Eigenvalues ---    0.07135   0.07233   0.07271   0.07332   0.07383
     Eigenvalues ---    0.07633   0.07817   0.07858   0.07936   0.08085
     Eigenvalues ---    0.08465   0.08537   0.08852   0.09047   0.09695
     Eigenvalues ---    0.09757   0.10169   0.10468   0.11273   0.11525
     Eigenvalues ---    0.11817   0.12150   0.12625   0.12839   0.12878
     Eigenvalues ---    0.12924   0.13029   0.13366   0.13670   0.13910
     Eigenvalues ---    0.14136   0.14384   0.14652   0.15722   0.15792
     Eigenvalues ---    0.16021   0.16119   0.16790   0.16952   0.16999
     Eigenvalues ---    0.17277   0.17292   0.17804   0.17880   0.19568
     Eigenvalues ---    0.19706   0.20354   0.20650   0.21580   0.21638
     Eigenvalues ---    0.23068   0.23357   0.23891   0.24832   0.26379
     Eigenvalues ---    0.27465   0.28534   0.29472   0.30027   0.30629
     Eigenvalues ---    0.31423   0.32336   0.34052   0.34722   0.36292
     Eigenvalues ---    0.36620   0.39382   0.40070   0.41097   0.43123
     Eigenvalues ---    0.43522   0.44530   0.48103   0.49096   0.50180
     Eigenvalues ---    0.53187   0.56751   0.57480   0.59973   0.64647
     Eigenvalues ---    0.65464   0.66251   0.67237   0.68201   0.68749
     Eigenvalues ---    0.70482   0.77552   0.78014   0.78738   0.81465
     Eigenvalues ---    0.83056   0.83352   0.85672   0.85840   0.87328
     Eigenvalues ---    0.88095   0.88681   0.90541   0.91305   0.93631
     Eigenvalues ---    0.94340   0.94820   0.94862   0.95761   0.96396
     Eigenvalues ---    0.97972   0.98051   0.99476   1.00401   1.00478
     Eigenvalues ---    1.00797   1.04034   1.04320   1.04469   1.06172
     Eigenvalues ---    1.06425   1.06759   1.07110   1.08669   1.09185
     Eigenvalues ---    1.13576   1.15604   1.15712   1.17468   1.19602
     Eigenvalues ---    1.21277   1.24015   1.26447   1.27656   1.37149
     Eigenvalues ---    1.47204   1.53531   1.58121   1.59003   1.59535
     Eigenvalues ---    1.60269   1.66690   1.73037   1.84334   2.35558
 Eigenvalue     1 is   4.44D-16 Eigenvector:
                          Y46       Y47       Y41       Y45       Y42
   1                    0.13470   0.13470   0.13470   0.13470   0.13470
                          Y40       Y43       Y39       Y48       Y38
   1                    0.13470   0.13470   0.13470   0.13470   0.13470
 Eigenvalue     2 is   5.30D-08 Eigenvector:
                          Y46       Y47       Y41       X54       Y42
   1                    0.21176   0.18198   0.17629  -0.16767   0.15963
                          Y45       X52       X53       Y40       X51
   1                    0.15944  -0.15245  -0.15144   0.14689  -0.13419
 Eigenvalue     3 is   7.09D-08 Eigenvector:
                          Z47       Z46       X46       Z42       Z41
   1                    0.19756   0.18095  -0.17349   0.16864   0.15945
                          Y46       Z71       X45       Z48       Z69
   1                   -0.15208  -0.15205  -0.15143   0.14773  -0.14626
 Eigenvalue     4 is   1.63D-07 Eigenvector:
                          Z77       Z76       Z57       Z71       Z75
   1                    0.18907   0.18082  -0.17043  -0.16936   0.16137
                          Y64       Z53       Z33       Z54       Z66
   1                   -0.15816  -0.15341   0.15083  -0.14903  -0.14784
 Eigenvalue     5 is   2.48D-07 Eigenvector:
                          Z47       Y46       Y9        Y64       Z42
   1                    0.18277   0.16652  -0.15886   0.15754   0.14595
                          Y47       Y71       Z48       Y73       Z46
   1                    0.14575  -0.14490   0.14306   0.13895   0.13876
 Eigenvalue     6 is   4.57D-07 Eigenvector:
                          Z54       Y69       Y59       Y48       Y66
   1                    0.24883  -0.24118   0.23154   0.22884  -0.19200
                          Y45       Z53       Y71       Z70       Z69
   1                   -0.18915   0.18765  -0.18371  -0.18354  -0.17567
 Eigenvalue     7 is   3.87D-05 Eigenvector:
                          X69       X70       X45       Z69       Z70
   1                    0.26098   0.22815  -0.22591   0.21912   0.21912
                          X46       X68       X67       Z68       X40
   1                   -0.21722   0.20463   0.18685   0.17867  -0.17444
 Quadratic step=6.987D+00 exceeds max=3.000D-01 adjusted using Lamda=-2.777D-03.
 Angle between NR and scaled steps=  24.31 degrees.
 Angle between quadratic step and forces=  50.14 degrees.
 Linear search not attempted -- first point.
 B after Tr=    -0.000558    0.000272    0.000578
         Rot=    1.000000   -0.000171    0.000090   -0.000115 Ang=  -0.03 deg.
 Variable       Old X    -DE/DX   Delta X   Delta X   Delta X     New X
                                 (Linear)    (Quad)   (Total)
    X1       -9.35292   0.00005   0.00000   0.02182   0.02131  -9.33161
    Y1        0.44862   0.00001   0.00000   0.00840   0.00681   0.45543
    Z1       -0.81685   0.00000   0.00000  -0.00288  -0.00383  -0.82068
    X2       -9.67396   0.00004   0.00000   0.00965   0.00997  -9.66399
    Y2       -1.97240   0.00002   0.00000   0.00573   0.00459  -1.96781
    Z2       -2.37062   0.00005   0.00000   0.00390   0.00206  -2.36856
    X3       -7.14197   0.00003   0.00000   0.00342   0.00415  -7.13783
    Y3       -2.81773  -0.00002   0.00000  -0.00467  -0.00485  -2.82258
    Z3       -3.49775  -0.00000   0.00000  -0.00264  -0.00431  -3.50207
    X4       -5.26098   0.00004   0.00000   0.00820   0.00863  -5.25234
    Y4       -3.23151   0.00003   0.00000  -0.00662  -0.00709  -3.23860
    Z4       -1.35474  -0.00001   0.00000  -0.00712  -0.00860  -1.36335
    X5       -4.86604  -0.00001   0.00000   0.02079   0.02038  -4.84567
    Y5       -0.76691  -0.00003   0.00000  -0.00513  -0.00603  -0.77294
    Z5        0.17440  -0.00004   0.00000  -0.01376  -0.01432   0.16008
    X6       -7.38915   0.00008   0.00000   0.02754   0.02673  -7.36242
    Y6        0.11915   0.00001   0.00000   0.00720   0.00534   0.12448
    Z6        1.28535  -0.00002   0.00000  -0.00874  -0.00945   1.27590
    X7       -7.34975  -0.00002   0.00000  -0.00573  -0.00441  -7.35416
    Y7       -4.55050  -0.00000   0.00000  -0.00604  -0.00588  -4.55638
    Z7       -4.61027  -0.00001   0.00000   0.00125  -0.00107  -4.61134
    X8      -10.42180   0.00003   0.00000   0.00914   0.00959 -10.41221
    Y8       -3.48354   0.00004   0.00000   0.01086   0.00913  -3.47441
    Z8       -1.16150   0.00002   0.00000   0.00996   0.00747  -1.15404
    X9      -11.04632   0.00001   0.00000   0.00534   0.00587 -11.04045
    Y9       -1.68036   0.00004   0.00000   0.00657   0.00563  -1.67473
    Z9       -3.89030   0.00003   0.00000   0.00798   0.00599  -3.88431
   X10       -8.74656   0.00005   0.00000   0.02207   0.02143  -8.72513
   Y10        1.98463   0.00001   0.00000   0.00381   0.00279   1.98742
   Z10       -2.07394  -0.00002   0.00000  -0.00834  -0.00866  -2.08260
   X11      -11.16830   0.00009   0.00000   0.02638   0.02558 -11.14272
   Y11        1.01223   0.00004   0.00000   0.01559   0.01330   1.02553
   Z11       -0.00002   0.00003   0.00000   0.00224   0.00116   0.00114
   X12       -5.98650   0.00003   0.00000   0.00827   0.00881  -5.97769
   Y12       -4.68939  -0.00005   0.00000  -0.00245  -0.00352  -4.69291
   Z12       -0.07931   0.00006   0.00000  -0.00196  -0.00407  -0.08338
   X13       -4.24355   0.00009   0.00000   0.02461   0.02411  -4.21944
   Y13        0.68319  -0.00007   0.00000  -0.01063  -0.01092   0.67227
   Z13       -1.17135  -0.00006   0.00000  -0.01782  -0.01778  -1.18912
   X14       -8.06178   0.00010   0.00000   0.02727   0.02652  -8.03526
   Y14       -1.25812   0.00006   0.00000   0.01339   0.01089  -1.24723
   Z14        2.67536  -0.00002   0.00000  -0.00289  -0.00419   2.67117
   X15       -7.06656   0.00013   0.00000   0.03750   0.03609  -7.03047
   Y15        1.91592   0.00001   0.00000   0.00844   0.00632   1.92224
   Z15        2.26155  -0.00003   0.00000  -0.01431  -0.01434   2.24721
   X16       -6.46547  -0.00001   0.00000   0.00398   0.00459  -6.46088
   Y16       -1.32328  -0.00001   0.00000  -0.00918  -0.00876  -1.33204
   Z16       -4.76933  -0.00005   0.00000  -0.00773  -0.00877  -4.77810
   X17       -2.74555  -0.00000   0.00000   0.00521   0.00599  -2.73955
   Y17       -4.11868  -0.00004   0.00000  -0.01171  -0.01132  -4.13000
   Z17       -2.18107  -0.00003   0.00000  -0.00959  -0.01093  -2.19199
   X18       -1.43462   0.00001   0.00000   0.00703   0.00784  -1.42678
   Y18       -2.80377  -0.00006   0.00000  -0.01023  -0.00893  -2.81269
   Z18       -3.95847  -0.00007   0.00000  -0.00712  -0.00776  -3.96623
   X19       -1.44604   0.00001   0.00000   0.00352   0.00437  -1.44166
   Y19       -5.65956  -0.00003   0.00000  -0.01192  -0.01177  -5.67133
   Z19       -0.58801  -0.00002   0.00000  -0.00839  -0.01002  -0.59803
   X20        1.12631   0.00001   0.00000   0.00769   0.00855   1.13487
   Y20       -2.92518  -0.00002   0.00000  -0.00524  -0.00329  -2.92847
   Z20       -4.14517  -0.00001   0.00000  -0.00004  -0.00026  -4.14543
   X21       -2.54215   0.00004   0.00000   0.00832   0.00907  -2.53308
   Y21       -1.59338  -0.00000   0.00000  -0.01045  -0.00898  -1.60236
   Z21       -5.18142  -0.00002   0.00000  -0.00851  -0.00894  -5.19036
   X22        1.11632   0.00002   0.00000   0.00394   0.00485   1.12117
   Y22       -5.85624  -0.00002   0.00000  -0.00737  -0.00662  -5.86286
   Z22       -0.63878  -0.00000   0.00000  -0.00176  -0.00299  -0.64177
   X23       -2.57010  -0.00000   0.00000   0.00155   0.00238  -2.56773
   Y23       -6.62897  -0.00005   0.00000  -0.01426  -0.01485  -6.64383
   Z23        0.82530  -0.00005   0.00000  -0.01158  -0.01374   0.81156
   X24        2.53877  -0.00001   0.00000   0.00509   0.00594   2.54471
   Y24       -4.30861  -0.00005   0.00000  -0.00156   0.00009  -4.30852
   Z24       -2.31074   0.00002   0.00000   0.00470   0.00426  -2.30648
   X25        2.06504   0.00005   0.00000   0.00980   0.01067   2.07571
   Y25       -1.82472   0.00001   0.00000  -0.00242   0.00025  -1.82447
   Z25       -5.58964   0.00002   0.00000   0.00345   0.00378  -5.58586
   X26        2.02118   0.00001   0.00000   0.00240   0.00332   2.02449
   Y26       -7.01444  -0.00002   0.00000  -0.00671  -0.00623  -7.02067
   Z26        0.77908  -0.00000   0.00000  -0.00021  -0.00167   0.77741
   X27        5.03962   0.00003   0.00000   0.00395   0.00474   5.04436
   Y27       -4.16719   0.00007   0.00000   0.00771   0.00989  -4.15730
   Z27       -2.17048   0.00003   0.00000   0.01462   0.01469  -2.15580
   X28        6.40706  -0.00001   0.00000  -0.00056   0.00005   6.40711
   Y28       -5.14228   0.00003   0.00000   0.01032   0.01205  -5.13024
   Z28        0.04462   0.00008   0.00000   0.01851   0.01848   0.06310
   X29        6.16671   0.00000   0.00000   0.00106   0.00211   6.16882
   Y29       -7.18833   0.00004   0.00000   0.01018   0.01180  -7.17653
   Z29        0.20812   0.00007   0.00000   0.01902   0.01825   0.22637
   X30        5.66304  -0.00002   0.00000  -0.00528  -0.00519   5.65784
   Y30       -4.18242   0.00005   0.00000   0.01058   0.01156  -4.17086
   Z30        1.73110   0.00006   0.00000   0.01638   0.01655   1.74765
   X31        6.45496  -0.00003   0.00000   0.00088   0.00141   6.45638
   Y31       -2.11578   0.00005   0.00000   0.01463   0.01755  -2.09823
   Z31       -3.40253   0.00007   0.00000   0.02259   0.02362  -3.37891
   X32        6.96022  -0.00003   0.00000   0.00138   0.00239   6.96261
   Y32       -2.66678   0.00010   0.00000   0.02244   0.02614  -2.64064
   Z32       -5.33632   0.00007   0.00000   0.02059   0.02152  -5.31481
   X33        5.28462   0.00001   0.00000  -0.00128  -0.00113   5.28349
   Y33       -0.41377   0.00009   0.00000   0.01331   0.01596  -0.39782
   Z33       -3.41638   0.00013   0.00000   0.02890   0.03030  -3.38608
   X34       -2.78799   0.00072   0.00000   0.02217   0.02148  -2.76651
   Y34       -0.94957   0.00015   0.00000  -0.01111  -0.01214  -0.96171
   Z34        1.96630  -0.00031   0.00000  -0.01632  -0.01657   1.94972
   X35       -2.86414   0.00004   0.00000   0.01315   0.01238  -2.85177
   Y35       -2.62114  -0.00001   0.00000  -0.00879  -0.01073  -2.63187
   Z35        4.56467  -0.00011   0.00000  -0.01539  -0.01623   4.54844
   X36       -5.18386   0.00000   0.00000   0.01214   0.01172  -5.17214
   Y36       -4.13270  -0.00007   0.00000  -0.00716  -0.00962  -4.14232
   Z36        4.52323  -0.00006   0.00000  -0.02158  -0.02335   4.49988
   X37       -0.45512   0.00005   0.00000   0.01132   0.01080  -0.44432
   Y37       -3.95195  -0.00005   0.00000  -0.01026  -0.01175  -3.96370
   Z37        4.84556  -0.00006   0.00000  -0.00654  -0.00740   4.83816
   X38       -1.28352  -0.00001   0.00000  -0.00485  -0.00654  -1.29006
   Y38        4.57378   0.00007   0.00000   0.02021   0.02005   4.59383
   Z38        0.37866   0.00005   0.00000   0.01412   0.01604   0.39471
   X39       -0.33820  -0.00001   0.00000  -0.00487  -0.00593  -0.34413
   Y39        3.63103   0.00012   0.00000   0.03048   0.03132   3.66235
   Z39       -1.91297   0.00001   0.00000   0.00978   0.01155  -1.90142
   X40       -1.74584  -0.00004   0.00000  -0.01045  -0.01116  -1.75700
   Y40        3.83888   0.00008   0.00000   0.02938   0.03066   3.86954
   Z40       -4.13043   0.00005   0.00000   0.01322   0.01481  -4.11562
   X41       -4.12348  -0.00005   0.00000  -0.01719  -0.01816  -4.14163
   Y41        4.97616   0.00005   0.00000   0.01524   0.01597   4.99213
   Z41       -4.12395   0.00007   0.00000   0.02155   0.02309  -4.10086
   X42       -5.08365  -0.00005   0.00000  -0.01824  -0.01982  -5.10347
   Y42        5.91533  -0.00002   0.00000   0.00239   0.00211   5.91745
   Z42       -1.86059   0.00009   0.00000   0.02639   0.02807  -1.83251
   X43       -3.66826  -0.00003   0.00000  -0.01174  -0.01369  -3.68195
   Y43        5.71285   0.00001   0.00000   0.00574   0.00503   5.71788
   Z43        0.35419   0.00005   0.00000   0.02246   0.02433   0.37852
   X44        1.45709   0.00001   0.00000   0.00028  -0.00056   1.45653
   Y44        2.63804   0.00004   0.00000   0.03935   0.04061   2.67865
   Z44       -1.88948   0.00000   0.00000   0.00326   0.00501  -1.88447
   X45       -0.96382  -0.00002   0.00000  -0.00951  -0.00973  -0.97355
   Y45        3.11535   0.00016   0.00000   0.03995   0.04201   3.15736
   Z45       -5.88975   0.00003   0.00000   0.00932   0.01081  -5.87894
   X46       -5.20633  -0.00006   0.00000  -0.02178  -0.02247  -5.22880
   Y46        5.14287   0.00005   0.00000   0.01415   0.01522   5.15809
   Z46       -5.86049   0.00008   0.00000   0.02433   0.02573  -5.83476
   X47       -6.92917  -0.00007   0.00000  -0.02402  -0.02582  -6.95499
   Y47        6.81437  -0.00004   0.00000  -0.00985  -0.01057   6.80380
   Z47       -1.81676   0.00011   0.00000   0.03326   0.03491  -1.78186
   X48       -4.43553  -0.00004   0.00000  -0.01244  -0.01487  -4.45040
   Y48        6.46555  -0.00004   0.00000  -0.00391  -0.00540   6.46015
   Z48        2.10754   0.00008   0.00000   0.02628   0.02827   2.13580
   X49        1.08648   0.00018   0.00000  -0.00869  -0.01048   1.07600
   Y49        2.29288  -0.00007   0.00000   0.02530   0.02449   2.31738
   Z49        3.86094   0.00028   0.00000   0.01980   0.02137   3.88230
   X50       -0.96361  -0.00037   0.00000   0.02313   0.02243  -0.94118
   Y50       -0.45724  -0.00028   0.00000  -0.01838  -0.01881  -0.47605
   Z50        1.41297   0.00014   0.00000  -0.01519  -0.01495   1.39802
   X51        3.37841  -0.00046   0.00000  -0.02978  -0.03107   3.34734
   Y51        1.01495   0.00013   0.00000   0.00006   0.00016   1.01512
   Z51        2.73275  -0.00000   0.00000   0.00751   0.00904   2.74179
   X52        2.78691  -0.00018   0.00000  -0.05697  -0.05762   2.72929
   Y52       -0.05053  -0.00012   0.00000  -0.00846  -0.00777  -0.05830
   Z52        0.57926   0.00000   0.00000   0.01902   0.02008   0.59933
   X53        3.99634  -0.00018   0.00000  -0.02672  -0.02797   3.96837
   Y53       -0.71815  -0.00001   0.00000   0.00687   0.00645  -0.71170
   Z53        4.67728   0.00000   0.00000   0.01257   0.01362   4.69090
   X54        2.67893   0.00003   0.00000  -0.03651  -0.03745   2.64148
   Y54       -2.00175   0.00011   0.00000   0.01610   0.01540  -1.98635
   Z54        4.59748   0.00013   0.00000   0.03226   0.03264   4.63012
   X55        5.58503  -0.00003   0.00000  -0.01235  -0.01408   5.57095
   Y55        2.93769  -0.00004   0.00000  -0.01926  -0.01864   2.91905
   Z55        2.74812  -0.00016   0.00000  -0.02141  -0.01882   2.72929
   X56        5.33666   0.00004   0.00000   0.01682   0.01451   5.35117
   Y56        4.21706   0.00003   0.00000  -0.01314  -0.01313   4.20393
   Z56        4.36200   0.00000   0.00000  -0.02145  -0.01847   4.34353
   X57        7.30222   0.00000   0.00000  -0.01777  -0.01932   7.28291
   Y57        1.85116  -0.00013   0.00000  -0.03416  -0.03328   1.81788
   Z57        3.16089  -0.00010   0.00000  -0.03713  -0.03461   3.12628
   X58        0.21082   0.00006   0.00000   0.00155  -0.00058   0.21023
   Y58        4.57924   0.00014   0.00000   0.02517   0.02450   4.60375
   Z58        2.85959  -0.00009   0.00000   0.01021   0.01240   2.87199
   X59       -1.05568   0.00000   0.00000   0.00991   0.00732  -1.04835
   Y59        5.36561   0.00012   0.00000   0.03960   0.03815   5.40377
   Z59        4.30434   0.00003   0.00000   0.00972   0.01196   4.31630
   X60        1.77179  -0.00001   0.00000   0.00810   0.00569   1.77748
   Y60        5.94060   0.00005   0.00000   0.01593   0.01570   5.95630
   Z60        2.67151   0.00000   0.00000  -0.00162   0.00132   2.67282
   X61       -3.03120  -0.00002   0.00000   0.00310   0.00136  -3.02984
   Y61       -0.37985  -0.00002   0.00000  -0.00530  -0.00813  -0.38799
   Z61        7.06007  -0.00006   0.00000  -0.01918  -0.01928   7.04079
   X62       -1.35293  -0.00003   0.00000   0.00398   0.00200  -1.35094
   Y62        0.81151   0.00002   0.00000  -0.00551  -0.00790   0.80361
   Z62        6.86812  -0.00002   0.00000  -0.01249  -0.01188   6.85624
   X63       -4.76956  -0.00002   0.00000   0.00430   0.00235  -4.76721
   Y63        0.70697  -0.00003   0.00000  -0.00539  -0.00854   0.69842
   Z63        6.83744  -0.00012   0.00000  -0.02963  -0.02968   6.80777
   X64       -3.03685  -0.00008   0.00000  -0.00670  -0.00852  -3.04536
   Y64       -1.42712  -0.00001   0.00000  -0.00274  -0.00619  -1.43331
   Z64        8.83672  -0.00006   0.00000  -0.01774  -0.01820   8.81852
   X65        6.00258  -0.00009   0.00000  -0.02314  -0.02477   5.97782
   Y65        4.44721  -0.00009   0.00000  -0.02771  -0.02617   4.42104
   Z65        0.32535  -0.00008   0.00000  -0.02834  -0.02517   0.30019
   X66        6.43592  -0.00016   0.00000  -0.05546  -0.05651   6.37941
   Y66        3.14500  -0.00007   0.00000  -0.03437  -0.03220   3.11280
   Z66       -1.22724  -0.00008   0.00000  -0.03170  -0.02890  -1.25615
   X67        4.27723  -0.00003   0.00000  -0.01813  -0.01989   4.25733
   Y67        5.43370  -0.00000   0.00000  -0.00817  -0.00683   5.42687
   Z67       -0.25296   0.00000   0.00000  -0.00969  -0.00649  -0.25945
   X68        8.13603   0.00002   0.00000   0.00261   0.00049   8.13652
   Y68        6.36862  -0.00015   0.00000  -0.05228  -0.05033   6.31829
   Z68        0.63455  -0.00012   0.00000  -0.05385  -0.04964   0.58491
   X69        8.48920  -0.00001   0.00000  -0.00429  -0.00633   8.48287
   Y69        7.42105  -0.00016   0.00000  -0.05783  -0.05520   7.36585
   Z69       -1.11031  -0.00015   0.00000  -0.05857  -0.05394  -1.16425
   X70        7.67439   0.00009   0.00000   0.03485   0.03215   7.70653
   Y70        7.73858  -0.00015   0.00000  -0.04587  -0.04454   7.69404
   Z70        2.11736  -0.00013   0.00000  -0.04976  -0.04516   2.07220
   X71        9.90001  -0.00003   0.00000  -0.00232  -0.00432   9.89569
   Y71        5.43517  -0.00021   0.00000  -0.07248  -0.07031   5.36486
   Z71        1.18798  -0.00019   0.00000  -0.07232  -0.06812   1.11986
   X72        9.12866   0.00001   0.00000  -0.00019   0.00034   9.12900
   Y72       -4.36317   0.00004   0.00000   0.01203   0.01456  -4.34861
   Z72       -0.48517   0.00006   0.00000   0.02319   0.02392  -0.46124
   X73       10.25902  -0.00001   0.00000  -0.00280  -0.00260  10.25642
   Y73       -4.29546   0.00004   0.00000   0.01219   0.01439  -4.28107
   Z73        1.23864   0.00007   0.00000   0.02488   0.02584   1.26448
   X74       10.01283  -0.00001   0.00000   0.00224   0.00331  10.01613
   Y74       -5.69129   0.00005   0.00000   0.01259   0.01578  -5.67551
   Z74       -1.80520   0.00007   0.00000   0.02431   0.02476  -1.78044
   X75        8.77630  -0.00002   0.00000   0.00104   0.00119   8.77749
   Y75       -1.76979   0.00001   0.00000   0.01218   0.01505  -1.75473
   Z75       -1.71164   0.00008   0.00000   0.02310   0.02466  -1.68698
   X76        8.30610   0.00007   0.00000   0.00287   0.00244   8.30854
   Y76       -0.39197   0.00008   0.00000   0.01268   0.01494  -0.37702
   Z76       -0.24536   0.00007   0.00000   0.02326   0.02521  -0.22015
   X77       10.42592   0.00000   0.00000   0.00142   0.00161  10.42753
   Y77       -1.10940   0.00002   0.00000   0.01096   0.01457  -1.09483
   Z77       -2.76104   0.00005   0.00000   0.02293   0.02501  -2.73603
         Item               Value     Threshold  Converged?
 Maximum Force            0.000720     0.000450     NO 
 RMS     Force            0.000096     0.000300     YES
 Maximum Displacement     0.070313     0.001800     NO 
 RMS     Displacement     0.019677     0.001200     NO 
 Predicted change in Energy=-2.681805D-04
 GradGradGradGradGradGradGradGradGradGradGradGradGradGradGradGradGradGrad

 Leave Link  103 at Thu Feb  7 12:33:43 2019, MaxMem=   104857600 cpu:              23.5 elap:               1.0
 (Enter /home/xinyan/g16/l9999.exe)
 1\1\GINC-TSE4\Force\RM062X\6-31G(d)\C27H41N3O5S1\STEVETSE\07-Feb-2019\
 0\\#p M062X/6-31G* em=gd3 force int=ultrafine\\Title\\0,1\C,-4.94935,0
 .2374,-0.43226\C,-5.11924,-1.04375,-1.25448\C,-3.77937,-1.49108,-1.850
 93\C,-2.78399,-1.71004,-0.7169\C,-2.575,-0.40583,0.09229\C,-3.91017,0.
 06305,0.68018\H,-3.88932,-2.40802,-2.43965\H,-5.51498,-1.84341,-0.6146
 4\H,-5.84546,-0.88921,-2.05866\H,-4.62848,1.05022,-1.09748\H,-5.91001,
 0.53565,-0.00001\H,-3.16792,-2.48152,-0.04197\H,-2.24559,0.36153,-0.61
 985\H,-4.26611,-0.66577,1.41574\H,-3.73946,1.01386,1.19676\H,-3.42138,
 -0.70025,-2.52382\N,-1.45288,-2.17951,-1.15417\C,-0.75917,-1.48369,-2.
 09473\C,-0.76521,-2.99491,-0.31116\C,0.59602,-1.54794,-2.19353\H,-1.34
 525,-0.84318,-2.74189\C,0.59073,-3.09899,-0.33803\H,-1.36004,-3.5079,0
 .43673\C,1.34346,-2.28002,-1.22279\H,1.09277,-0.9656,-2.95791\H,1.0695
 6,-3.71188,0.41227\N,2.66685,-2.20518,-1.14857\C,3.39047,-2.72118,0.02
 361\H,3.26328,-3.8039,0.11013\H,2.99675,-2.21324,0.91606\C,3.41582,-1.
 11962,-1.80054\H,3.68319,-1.4112,-2.82386\H,2.7965,-0.21896,-1.80787\N
 ,-1.47534,-0.50249,1.04052\S,-1.51564,-1.38705,2.41552\O,-2.74318,-2.1
 8693,2.39359\O,-0.24084,-2.09128,2.56416\C,-0.67921,2.42034,0.20038\C,
 -0.17897,1.92146,-1.0123\C,-0.92386,2.03145,-2.18573\C,-2.18205,2.6332
 7,-2.1823\C,-2.69015,3.13026,-0.98458\C,-1.94116,3.02311,0.18743\H,0.7
 7106,1.39599,-0.99987\H,-0.51003,1.64857,-3.11672\H,-2.75507,2.72149,-
 3.10124\H,-3.66676,3.60601,-0.96139\H,-2.34718,3.42142,1.11526\O,0.574
 94,1.21334,2.04312\H,-0.50992,-0.24196,0.74771\C,1.78778,0.53709,1.446
 11\O,1.47477,-0.02674,0.30653\O,2.11477,-0.38003,2.47511\H,1.41763,-1.
 05928,2.43288\C,2.95547,1.55456,1.45424\H,2.82404,2.23157,2.30827\H,3.
 86417,0.97959,1.67267\C,0.11156,2.42323,1.51323\H,-0.55864,2.83936,2.2
 7776\H,0.93759,3.14363,1.4137\C,-1.60404,-0.20101,3.73603\H,-0.71594,0
 .42943,3.63445\H,-2.52394,0.37411,3.61822\H,-1.60703,-0.7552,4.67619\C
 ,3.17643,2.35336,0.17217\H,3.40574,1.66426,-0.64943\H,2.26341,2.87539,
 -0.13386\C,4.3054,3.37013,0.33579\H,4.49229,3.92705,-0.58755\H,4.06111
 ,4.09508,1.12046\H,5.23886,2.87617,0.62865\C,4.83068,-2.30889,-0.25674
 \H,5.42884,-2.27306,0.65546\H,5.29856,-3.0117,-0.95527\C,4.64422,-0.93
 653,-0.90576\H,4.3954,-0.20742,-0.12984\H,5.51716,-0.58707,-1.46108\\V
 ersion=ES64L-G16RevA.03\State=1-A\HF=-1991.3572059\RMSD=9.726e-09\RMSF
 =9.634e-05\Dipole=-1.1585293,-0.7484546,-2.4559605\Quadrupole=7.145973
 1,-4.9013471,-2.244626,-9.4301536,-3.7536685,7.3577542\PG=C01 [X(C27H4
 1N3O5S1)]\\@


 REALITY IS FOR PEOPLE WHO CAN'T FACE SCIENCE FICTION.
 Job cpu time:       0 days  1 hours 16 minutes 34.0 seconds.
 Elapsed time:       0 days  0 hours  3 minutes 13.5 seconds.
 File lengths (MBytes):  RWF=    216 Int=      0 D2E=      0 Chk=     25 Scr=      1
 Normal termination of Gaussian 16 at Thu Feb  7 12:33:43 2019.
