 Entering Gaussian System, Link 0=g16
 Input=C27N3H41SO5-57.gjf
 Output=C27N3H41SO5-57.log
 Initial command:
 /home/xinyan/g16/l1.exe "/local/home/tmp/Gau-23836.inp" -scrdir="/local/home/tmp/"
 Entering Link 1 = /home/xinyan/g16/l1.exe PID=     23837.
  
 Copyright (c) 1988,1990,1992,1993,1995,1998,2003,2009,2016,
            Gaussian, Inc.  All Rights Reserved.
  
 This is part of the Gaussian(R) 16 program.  It is based on
 the Gaussian(R) 09 system (copyright 2009, Gaussian, Inc.),
 the Gaussian(R) 03 system (copyright 2003, Gaussian, Inc.),
 the Gaussian(R) 98 system (copyright 1998, Gaussian, Inc.),
 the Gaussian(R) 94 system (copyright 1995, Gaussian, Inc.),
 the Gaussian 92(TM) system (copyright 1992, Gaussian, Inc.),
 the Gaussian 90(TM) system (copyright 1990, Gaussian, Inc.),
 the Gaussian 88(TM) system (copyright 1988, Gaussian, Inc.),
 the Gaussian 86(TM) system (copyright 1986, Carnegie Mellon
 University), and the Gaussian 82(TM) system (copyright 1983,
 Carnegie Mellon University). Gaussian is a federally registered
 trademark of Gaussian, Inc.
  
 This software contains proprietary and confidential information,
 including trade secrets, belonging to Gaussian, Inc.
  
 This software is provided under written license and may be
 used, copied, transmitted, or stored only in accord with that
 written license.
  
 The following legend is applicable only to US Government
 contracts under FAR:
  
                    RESTRICTED RIGHTS LEGEND
  
 Use, reproduction and disclosure by the US Government is
 subject to restrictions as set forth in subparagraphs (a)
 and (c) of the Commercial Computer Software - Restricted
 Rights clause in FAR 52.227-19.
  
 Gaussian, Inc.
 340 Quinnipiac St., Bldg. 40, Wallingford CT 06492
  
  
 ---------------------------------------------------------------
 Warning -- This program may not be used in any manner that
 competes with the business of Gaussian, Inc. or will provide
 assistance to any competitor of Gaussian, Inc.  The licensee
 of this program is prohibited from giving any competitor of
 Gaussian, Inc. access to this program.  By using this program,
 the user acknowledges that Gaussian, Inc. is engaged in the
 business of creating and licensing software in the field of
 computational chemistry and represents and warrants to the
 licensee that it is not a competitor of Gaussian, Inc. and that
 it will not use this program in any manner prohibited above.
 ---------------------------------------------------------------
  

 Cite this work as:
 Gaussian 16, Revision A.03,
 M. J. Frisch, G. W. Trucks, H. B. Schlegel, G. E. Scuseria, 
 M. A. Robb, J. R. Cheeseman, G. Scalmani, V. Barone, 
 G. A. Petersson, H. Nakatsuji, X. Li, M. Caricato, A. V. Marenich, 
 J. Bloino, B. G. Janesko, R. Gomperts, B. Mennucci, H. P. Hratchian, 
 J. V. Ortiz, A. F. Izmaylov, J. L. Sonnenberg, D. Williams-Young, 
 F. Ding, F. Lipparini, F. Egidi, J. Goings, B. Peng, A. Petrone, 
 T. Henderson, D. Ranasinghe, V. G. Zakrzewski, J. Gao, N. Rega, 
 G. Zheng, W. Liang, M. Hada, M. Ehara, K. Toyota, R. Fukuda, 
 J. Hasegawa, M. Ishida, T. Nakajima, Y. Honda, O. Kitao, H. Nakai, 
 T. Vreven, K. Throssell, J. A. Montgomery, Jr., J. E. Peralta, 
 F. Ogliaro, M. J. Bearpark, J. J. Heyd, E. N. Brothers, K. N. Kudin, 
 V. N. Staroverov, T. A. Keith, R. Kobayashi, J. Normand, 
 K. Raghavachari, A. P. Rendell, J. C. Burant, S. S. Iyengar, 
 J. Tomasi, M. Cossi, J. M. Millam, M. Klene, C. Adamo, R. Cammi, 
 J. W. Ochterski, R. L. Martin, K. Morokuma, O. Farkas, 
 J. B. Foresman, and D. J. Fox, Gaussian, Inc., Wallingford CT, 2016.
 
 ******************************************
 Gaussian 16:  ES64L-G16RevA.03 25-Dec-2016
                 7-Feb-2019 
 ******************************************
 %nproc=24
 Will use up to   24 processors via shared memory.
 ------------------------------------------
 #p M062X/6-31G* em=gd3 force int=ultrafine
 ------------------------------------------
 1/10=7,30=1,38=1/1,3;
 2/12=2,17=6,18=5,40=1/2;
 3/5=1,6=6,7=1,11=2,25=1,30=1,71=1,74=-55,75=-5,124=31/1,2,3;
 4//1;
 5/5=2,38=5/2;
 6/7=2,8=2,9=2,10=2,28=1/1;
 7/29=1/1,2,3,16;
 1/10=7,30=1/3;
 99//99;
 Leave Link    1 at Thu Feb  7 11:42:25 2019, MaxMem=           0 cpu:               2.5 elap:               0.1
 (Enter /home/xinyan/g16/l101.exe)
 -----
 Title
 -----
 Symbolic Z-matrix:
 Charge =  0 Multiplicity = 1
 C                    -4.97437   0.23047  -0.43451 
 C                    -5.12921  -1.04991  -1.26076 
 C                    -3.78141  -1.48839  -1.8458 
 C                    -2.79292  -1.70543  -0.7049 
 C                    -2.60353  -0.40291   0.11053 
 C                    -3.94609   0.05679   0.68762 
 H                    -3.88093  -2.40373  -2.43877 
 H                    -5.52664  -1.85273  -0.62597 
 H                    -5.84851  -0.89794  -2.07158 
 H                    -4.64887   1.04626  -1.09411 
 H                    -5.94076   0.52417  -0.01218 
 H                    -3.17599  -2.48325  -0.03651 
 H                    -2.27103   0.36889  -0.59543 
 H                    -4.30452  -0.67627   1.41787 
 H                    -3.78385   1.00637   1.20944 
 H                    -3.4221   -0.69305  -2.51259 
 N                    -1.45607  -2.16428  -1.13621 
 C                    -0.7658   -1.47507  -2.08422 
 C                    -0.76496  -2.97728  -0.29368 
 C                     0.58842  -1.54554  -2.19298 
 H                    -1.35358  -0.83639  -2.73135 
 C                     0.59029  -3.08648  -0.3299 
 H                    -1.35638  -3.48769   0.45857 
 C                     1.34133  -2.27871  -1.22715 
 H                     1.0815   -0.969    -2.96418 
 H                     1.0717   -3.69974   0.41847 
 N                     2.66605  -2.21802  -1.16819 
 C                     3.3931   -2.73596   0.00154 
 H                     3.264    -3.81851   0.0884 
 H                     3.00345  -2.22633   0.89458 
 C                     3.42265  -1.14322  -1.83088 
 H                     3.69459  -1.45031  -2.84853 
 H                     2.80997  -0.23868  -1.85131 
 N                    -1.51353  -0.49343   1.06908 
 S                    -1.53481  -1.38642   2.43965 
 O                    -2.76337  -2.18389   2.4214 
 O                    -0.25818  -2.0892    2.57172 
 C                    -0.67668   2.41475   0.18194 
 C                    -0.17748   1.89236  -1.02047 
 C                    -0.9166    1.99921  -2.1983 
 C                    -2.16643   2.61789  -2.20659 
 C                    -2.67311   3.13665  -1.01699 
 C                    -1.93045   3.0344    0.15929 
 H                     0.76706   1.35461  -0.99271 
 H                    -0.50499   1.60024  -3.12352 
 H                    -2.73484   2.70256  -3.12873 
 H                    -3.64377   3.62485  -1.00434 
 H                    -2.33459   3.4481    1.08119 
 O                     0.57299   1.17313   1.98849 
 H                    -0.56575  -0.17538   0.80749 
 C                     1.83488   0.53199   1.41951 
 O                     1.5802   -0.02152   0.26715 
 O                     2.13818  -0.38743   2.45403 
 H                     1.43979  -1.0641    2.39617 
 C                     2.97244   1.57926   1.47713 
 H                     2.80187   2.24894   2.33018 
 H                     3.88924   1.02471   1.71494 
 C                     0.10915   2.39881   1.49586 
 H                    -0.5644    2.79538   2.26866 
 H                     0.93323   3.12334   1.41491 
 C                    -1.6043   -0.20338   3.7639 
 H                    -0.7184    0.42799   3.64733 
 H                    -2.52766   0.36941   3.66437 
 H                    -1.58696  -0.75834   4.7035 
 C                     3.20302   2.38368   0.20011 
 H                     3.45901   1.69645  -0.615 
 H                     2.28425   2.88573  -0.12359 
 C                     4.30859   3.42256   0.38164 
 H                     4.49978   3.98189  -0.53943 
 H                     4.03858   4.14395   1.16118 
 H                     5.24659   2.94688   0.68962 
 C                     4.83338  -2.32518  -0.2802 
 H                     5.43111  -2.28794   0.63228 
 H                     5.30171  -3.02922  -0.9773 
 C                     4.64585  -0.95413  -0.93105 
 H                     4.38552  -0.22624  -0.15743 
 H                     5.52032  -0.60206  -1.48239 
 
 ITRead=  0  0  0  0  0  0  0  0  0  0  0  0  0  0  0  0  0  0  0  0
 ITRead=  0  0  0  0  0  0  0  0  0  0  0  0  0  0  0  0  0  0  0  0
 ITRead=  0  0  0  0  0  0  0  0  0  0  0  0  0  0  0  0  0  0  0  0
 ITRead=  0  0  0  0  0  0  0  0  0  0  0  0  0  0  0  0  0
 MicOpt= -1 -1 -1 -1 -1 -1 -1 -1 -1 -1 -1 -1 -1 -1 -1 -1 -1 -1 -1 -1
 MicOpt= -1 -1 -1 -1 -1 -1 -1 -1 -1 -1 -1 -1 -1 -1 -1 -1 -1 -1 -1 -1
 MicOpt= -1 -1 -1 -1 -1 -1 -1 -1 -1 -1 -1 -1 -1 -1 -1 -1 -1 -1 -1 -1
 MicOpt= -1 -1 -1 -1 -1 -1 -1 -1 -1 -1 -1 -1 -1 -1 -1 -1 -1
 NAtoms=     77 NQM=       77 NQMF=       0 NMMI=      0 NMMIF=      0
                NMic=       0 NMicF=      0.
                    Isotopes and Nuclear Properties:
 (Nuclear quadrupole moments (NQMom) in fm**2, nuclear magnetic moments (NMagM)
  in nuclear magnetons)

  Atom         1           2           3           4           5           6           7           8           9          10
 IAtWgt=          12          12          12          12          12          12           1           1           1           1
 AtmWgt=  12.0000000  12.0000000  12.0000000  12.0000000  12.0000000  12.0000000   1.0078250   1.0078250   1.0078250   1.0078250
 NucSpn=           0           0           0           0           0           0           1           1           1           1
 AtZEff=  -0.0000000  -0.0000000  -0.0000000  -0.0000000  -0.0000000  -0.0000000  -0.0000000  -0.0000000  -0.0000000  -0.0000000
 NQMom=    0.0000000   0.0000000   0.0000000   0.0000000   0.0000000   0.0000000   0.0000000   0.0000000   0.0000000   0.0000000
 NMagM=    0.0000000   0.0000000   0.0000000   0.0000000   0.0000000   0.0000000   2.7928460   2.7928460   2.7928460   2.7928460
 AtZNuc=   6.0000000   6.0000000   6.0000000   6.0000000   6.0000000   6.0000000   1.0000000   1.0000000   1.0000000   1.0000000

  Atom        11          12          13          14          15          16          17          18          19          20
 IAtWgt=           1           1           1           1           1           1          14          12          12          12
 AtmWgt=   1.0078250   1.0078250   1.0078250   1.0078250   1.0078250   1.0078250  14.0030740  12.0000000  12.0000000  12.0000000
 NucSpn=           1           1           1           1           1           1           2           0           0           0
 AtZEff=  -0.0000000  -0.0000000  -0.0000000  -0.0000000  -0.0000000  -0.0000000  -0.0000000  -0.0000000  -0.0000000  -0.0000000
 NQMom=    0.0000000   0.0000000   0.0000000   0.0000000   0.0000000   0.0000000   2.0440000   0.0000000   0.0000000   0.0000000
 NMagM=    2.7928460   2.7928460   2.7928460   2.7928460   2.7928460   2.7928460   0.4037610   0.0000000   0.0000000   0.0000000
 AtZNuc=   1.0000000   1.0000000   1.0000000   1.0000000   1.0000000   1.0000000   7.0000000   6.0000000   6.0000000   6.0000000

  Atom        21          22          23          24          25          26          27          28          29          30
 IAtWgt=           1          12           1          12           1           1          14          12           1           1
 AtmWgt=   1.0078250  12.0000000   1.0078250  12.0000000   1.0078250   1.0078250  14.0030740  12.0000000   1.0078250   1.0078250
 NucSpn=           1           0           1           0           1           1           2           0           1           1
 AtZEff=  -0.0000000  -0.0000000  -0.0000000  -0.0000000  -0.0000000  -0.0000000  -0.0000000  -0.0000000  -0.0000000  -0.0000000
 NQMom=    0.0000000   0.0000000   0.0000000   0.0000000   0.0000000   0.0000000   2.0440000   0.0000000   0.0000000   0.0000000
 NMagM=    2.7928460   0.0000000   2.7928460   0.0000000   2.7928460   2.7928460   0.4037610   0.0000000   2.7928460   2.7928460
 AtZNuc=   1.0000000   6.0000000   1.0000000   6.0000000   1.0000000   1.0000000   7.0000000   6.0000000   1.0000000   1.0000000

  Atom        31          32          33          34          35          36          37          38          39          40
 IAtWgt=          12           1           1          14          32          16          16          12          12          12
 AtmWgt=  12.0000000   1.0078250   1.0078250  14.0030740  31.9720718  15.9949146  15.9949146  12.0000000  12.0000000  12.0000000
 NucSpn=           0           1           1           2           0           0           0           0           0           0
 AtZEff=  -0.0000000  -0.0000000  -0.0000000  -0.0000000  -0.0000000  -0.0000000  -0.0000000  -0.0000000  -0.0000000  -0.0000000
 NQMom=    0.0000000   0.0000000   0.0000000   2.0440000   0.0000000   0.0000000   0.0000000   0.0000000   0.0000000   0.0000000
 NMagM=    0.0000000   2.7928460   2.7928460   0.4037610   0.0000000   0.0000000   0.0000000   0.0000000   0.0000000   0.0000000
 AtZNuc=   6.0000000   1.0000000   1.0000000   7.0000000  16.0000000   8.0000000   8.0000000   6.0000000   6.0000000   6.0000000

  Atom        41          42          43          44          45          46          47          48          49          50
 IAtWgt=          12          12          12           1           1           1           1           1          16           1
 AtmWgt=  12.0000000  12.0000000  12.0000000   1.0078250   1.0078250   1.0078250   1.0078250   1.0078250  15.9949146   1.0078250
 NucSpn=           0           0           0           1           1           1           1           1           0           1
 AtZEff=  -0.0000000  -0.0000000  -0.0000000  -0.0000000  -0.0000000  -0.0000000  -0.0000000  -0.0000000  -0.0000000  -0.0000000
 NQMom=    0.0000000   0.0000000   0.0000000   0.0000000   0.0000000   0.0000000   0.0000000   0.0000000   0.0000000   0.0000000
 NMagM=    0.0000000   0.0000000   0.0000000   2.7928460   2.7928460   2.7928460   2.7928460   2.7928460   0.0000000   2.7928460
 AtZNuc=   6.0000000   6.0000000   6.0000000   1.0000000   1.0000000   1.0000000   1.0000000   1.0000000   8.0000000   1.0000000

  Atom        51          52          53          54          55          56          57          58          59          60
 IAtWgt=          12          16          16           1          12           1           1          12           1           1
 AtmWgt=  12.0000000  15.9949146  15.9949146   1.0078250  12.0000000   1.0078250   1.0078250  12.0000000   1.0078250   1.0078250
 NucSpn=           0           0           0           1           0           1           1           0           1           1
 AtZEff=  -0.0000000  -0.0000000  -0.0000000  -0.0000000  -0.0000000  -0.0000000  -0.0000000  -0.0000000  -0.0000000  -0.0000000
 NQMom=    0.0000000   0.0000000   0.0000000   0.0000000   0.0000000   0.0000000   0.0000000   0.0000000   0.0000000   0.0000000
 NMagM=    0.0000000   0.0000000   0.0000000   2.7928460   0.0000000   2.7928460   2.7928460   0.0000000   2.7928460   2.7928460
 AtZNuc=   6.0000000   8.0000000   8.0000000   1.0000000   6.0000000   1.0000000   1.0000000   6.0000000   1.0000000   1.0000000

  Atom        61          62          63          64          65          66          67          68          69          70
 IAtWgt=          12           1           1           1          12           1           1          12           1           1
 AtmWgt=  12.0000000   1.0078250   1.0078250   1.0078250  12.0000000   1.0078250   1.0078250  12.0000000   1.0078250   1.0078250
 NucSpn=           0           1           1           1           0           1           1           0           1           1
 AtZEff=  -0.0000000  -0.0000000  -0.0000000  -0.0000000  -0.0000000  -0.0000000  -0.0000000  -0.0000000  -0.0000000  -0.0000000
 NQMom=    0.0000000   0.0000000   0.0000000   0.0000000   0.0000000   0.0000000   0.0000000   0.0000000   0.0000000   0.0000000
 NMagM=    0.0000000   2.7928460   2.7928460   2.7928460   0.0000000   2.7928460   2.7928460   0.0000000   2.7928460   2.7928460
 AtZNuc=   6.0000000   1.0000000   1.0000000   1.0000000   6.0000000   1.0000000   1.0000000   6.0000000   1.0000000   1.0000000

  Atom        71          72          73          74          75          76          77
 IAtWgt=           1          12           1           1          12           1           1
 AtmWgt=   1.0078250  12.0000000   1.0078250   1.0078250  12.0000000   1.0078250   1.0078250
 NucSpn=           1           0           1           1           0           1           1
 AtZEff=  -0.0000000  -0.0000000  -0.0000000  -0.0000000  -0.0000000  -0.0000000  -0.0000000
 NQMom=    0.0000000   0.0000000   0.0000000   0.0000000   0.0000000   0.0000000   0.0000000
 NMagM=    2.7928460   0.0000000   2.7928460   2.7928460   0.0000000   2.7928460   2.7928460
 AtZNuc=   1.0000000   6.0000000   1.0000000   1.0000000   6.0000000   1.0000000   1.0000000
 Leave Link  101 at Thu Feb  7 11:42:25 2019, MaxMem=   104857600 cpu:               5.7 elap:               0.3
 (Enter /home/xinyan/g16/l103.exe)

 GradGradGradGradGradGradGradGradGradGradGradGradGradGradGradGradGradGrad
 Berny optimization.
 Initialization pass.
 Trust Radius=3.00D-01 FncErr=1.00D-07 GrdErr=1.00D-07 EigMax=2.50D+02 EigMin=1.00D-04
 Number of steps in this run=      2 maximum allowed number of steps=      2.
 GradGradGradGradGradGradGradGradGradGradGradGradGradGradGradGradGradGrad

 Leave Link  103 at Thu Feb  7 11:42:26 2019, MaxMem=   104857600 cpu:               1.6 elap:               0.1
 (Enter /home/xinyan/g16/l202.exe)
 Stoichiometry    C27H41N3O5S
 Framework group  C1[X(C27H41N3O5S)]
 Deg. of freedom   225
 Full point group                 C1      NOp   1
 Largest Abelian subgroup         C1      NOp   1
 Largest concise Abelian subgroup C1      NOp   1
                         Standard orientation:                         
 ---------------------------------------------------------------------
 Center     Atomic      Atomic             Coordinates (Angstroms)
 Number     Number       Type             X           Y           Z
 ---------------------------------------------------------------------
      1          6           0       -4.856100    0.482965   -0.546185
      2          6           0       -5.037599   -0.829990   -1.313807
      3          6           0       -3.704057   -1.308215   -1.900381
      4          6           0       -2.699624   -1.486932   -0.766782
      5          6           0       -2.483524   -0.152709   -0.011466
      6          6           0       -3.811734    0.346314    0.566167
      7          1           0       -3.822675   -2.247065   -2.451611
      8          1           0       -5.433105   -1.600272   -0.638773
      9          1           0       -5.768251   -0.705067   -2.119077
     10          1           0       -4.532775    1.265936   -1.245437
     11          1           0       -5.812437    0.805305   -0.121864
     12          1           0       -3.079970   -2.230951   -0.059489
     13          1           0       -2.154407    0.584243   -0.755237
     14          1           0       -4.165980   -0.350601    1.332935
     15          1           0       -3.631197    1.315611    1.043861
     16          1           0       -3.347258   -0.546359   -2.606461
     17          7           0       -1.374764   -1.978767   -1.198736
     18          6           0       -0.692708   -1.338723   -2.186334
     19          6           0       -0.678688   -2.762388   -0.332783
     20          6           0        0.658773   -1.428873   -2.313134
     21          1           0       -1.284143   -0.721989   -2.851178
     22          6           0        0.674588   -2.888119   -0.385463
     23          1           0       -1.263202   -3.233335    0.449987
     24          6           0        1.419459   -2.128124   -1.328429
     25          1           0        1.145350   -0.891584   -3.116153
     26          1           0        1.161570   -3.473917    0.381081
     27          7           0        2.745519   -2.079695   -1.292893
     28          6           0        3.485883   -2.554865   -0.113399
     29          1           0        3.346905   -3.631169    0.022172
     30          1           0        3.116023   -2.002965    0.762775
     31          6           0        3.502518   -1.042900   -2.013173
     32          1           0        3.754797   -1.396515   -3.020734
     33          1           0        2.899066   -0.133317   -2.063079
     34          7           0       -1.379218   -0.214009    0.932919
     35         16           0       -1.387723   -1.046886    2.340963
     36          8           0       -2.624677   -1.830684    2.376427
     37          8           0       -0.116538   -1.757491    2.483278
     38          6           0       -0.526459    2.643800   -0.092058
     39          6           0       -0.052189    2.064618   -1.278438
     40          6           0       -0.809044    2.128889   -2.448070
     41          6           0       -2.052318    2.760507   -2.463520
     42          6           0       -2.534311    3.335595   -1.289663
     43          6           0       -1.773893    3.275813   -0.121834
     44          1           0        0.887010    1.518085   -1.242256
     45          1           0       -0.416591    1.685910   -3.361515
     46          1           0       -2.634604    2.811726   -3.379446
     47          1           0       -3.499491    3.834657   -1.282928
     48          1           0       -2.158778    3.733281    0.787541
     49          8           0        0.739139    1.467261    1.746674
     50          1           0       -0.432509    0.081922    0.643023
     51          6           0        1.984930    0.788225    1.186246
     52          8           0        1.705941    0.188495    0.063010
     53          8           0        2.295251   -0.089133    2.254656
     54          1           0        1.588992   -0.759854    2.237033
     55          6           0        3.134143    1.824282    1.180740
     56          1           0        2.984349    2.531915    2.006619
     57          1           0        4.048818    1.270315    1.427910
     58          6           0        0.280240    2.675687    1.208860
     59          1           0       -0.376587    3.112622    1.974250
     60          1           0        1.110428    3.386847    1.083784
     61          6           0       -1.423501    0.192756    3.613778
     62          1           0       -0.533051    0.808627    3.456178
     63          1           0       -2.342315    0.770970    3.504056
     64          1           0       -1.396812   -0.321405    4.576095
     65          6           0        3.352494    2.570375   -0.133302
     66          1           0        3.588121    1.845892   -0.921860
     67          1           0        2.433917    3.068219   -0.463972
     68          6           0        4.471633    3.603740   -0.014166
     69          1           0        4.653780    4.120745   -0.961426
     70          1           0        4.221771    4.360975    0.737603
     71          1           0        5.409458    3.131350    0.299360
     72          6           0        4.925645   -2.172643   -0.435140
     73          1           0        5.538363   -2.102815    0.465409
     74          1           0        5.375300   -2.911203   -1.108411
     75          6           0        4.741973   -0.828876   -1.141615
     76          1           0        4.501762   -0.065511   -0.396192
     77          1           0        5.611069   -0.510615   -1.721276
 ---------------------------------------------------------------------
 Rotational constants (GHZ):           0.1531013           0.0993572           0.0899598
 Leave Link  202 at Thu Feb  7 11:42:26 2019, MaxMem=   104857600 cpu:               2.5 elap:               0.1
 (Enter /home/xinyan/g16/l301.exe)
 Standard basis: 6-31G(d) (6D, 7F)
 Ernie: Thresh=  0.10000D-02 Tol=  0.10000D-05 Strict=F.
 There are   626 symmetry adapted cartesian basis functions of A   symmetry.
 There are   626 symmetry adapted basis functions of A   symmetry.
   626 basis functions,  1196 primitive gaussians,   626 cartesian basis functions
   140 alpha electrons      140 beta electrons
       nuclear repulsion energy      4972.3037785604 Hartrees.
 IExCor= 4336 DFT=T Ex+Corr=M062X ExCW=0 ScaHFX=  0.540000
 ScaDFX=  1.000000  1.000000  1.000000  1.000000 ScalE2=  1.000000  1.000000
 IRadAn=      5 IRanWt=     -1 IRanGd=            0 ICorTp=0 IEmpDi=131
 NAtoms=   77 NActive=   77 NUniq=   77 SFac= 1.00D+00 NAtFMM=   60 NAOKFM=T Big=T
 Integral buffers will be    131072 words long.
 Raffenetti 2 integral format.
 Two-electron integral symmetry is turned on.
 R6Disp:  Grimme-D3 Dispersion energy=       -0.0107506284 Hartrees.
 Nuclear repulsion after empirical dispersion term =     4972.2930279320 Hartrees.
 Leave Link  301 at Thu Feb  7 11:42:26 2019, MaxMem=   104857600 cpu:               3.0 elap:               0.2
 (Enter /home/xinyan/g16/l302.exe)
 NPDir=0 NMtPBC=     1 NCelOv=     1 NCel=       1 NClECP=     1 NCelD=      1
         NCelK=      1 NCelE2=     1 NClLst=     1 CellRange=     0.0.
 One-electron integrals computed using PRISM.
 One-electron integral symmetry used in STVInt
 PrsmSu:  requested number of processors reduced to:  23 ShMem   1 Linda.
 NBasis=   626 RedAO= T EigKep=  4.39D-04  NBF=   626
 NBsUse=   626 1.00D-06 EigRej= -1.00D+00 NBFU=   626
 Precomputing XC quadrature grid using
 IXCGrd= 4 IRadAn=           5 IRanWt=          -1 IRanGd=           0 AccXCQ= 0.00D+00.
 Generated NRdTot=       0 NPtTot=           0 NUsed=           0 NTot=          32
 NSgBfM=   620   620   620   620   620 MxSgAt=    77 MxSgA2=    77.
 Leave Link  302 at Thu Feb  7 11:42:30 2019, MaxMem=   104857600 cpu:             104.6 elap:               4.6
 (Enter /home/xinyan/g16/l303.exe)
 DipDrv:  MaxL=1.
 Leave Link  303 at Thu Feb  7 11:42:31 2019, MaxMem=   104857600 cpu:               4.6 elap:               0.2
 (Enter /home/xinyan/g16/l401.exe)
 ExpMin= 1.17D-01 ExpMax= 2.19D+04 ExpMxC= 3.30D+03 IAcc=3 IRadAn=         5 AccDes= 0.00D+00
 Harris functional with IExCor= 1009 and IRadAn=       5 diagonalized for initial guess.
 HarFok:  IExCor= 1009 AccDes= 0.00D+00 IRadAn=         5 IDoV= 1 UseB2=F ITyADJ=14
 ICtDFT=  3500011 ScaDFX=  1.000000  1.000000  1.000000  1.000000
 FoFCou: FMM=F IPFlag=           0 FMFlag=      100000 FMFlg1=        2001
         NFxFlg=           0 DoJE=T BraDBF=F KetDBF=T FulRan=T
         wScrn=  0.000000 ICntrl=       500 IOpCl=  0 I1Cent=   200000004 NGrid=           0
         NMat0=    1 NMatS0=      1 NMatT0=    0 NMatD0=    1 NMtDS0=    0 NMtDT0=    0
 Petite list used in FoFCou.
 Harris En= -1990.53338836243    
 JPrj=0 DoOrth=F DoCkMO=F.
 Leave Link  401 at Thu Feb  7 11:42:35 2019, MaxMem=   104857600 cpu:              99.3 elap:               4.2
 (Enter /home/xinyan/g16/l502.exe)
 Integral symmetry usage will be decided dynamically.
 Closed shell SCF:
 Using DIIS extrapolation, IDIIS=  1040.
 NGot=   104857600 LenX=   104051656 LenY=   103659154
 Requested convergence on RMS density matrix=1.00D-08 within 128 cycles.
 Requested convergence on MAX density matrix=1.00D-06.
 Requested convergence on             energy=1.00D-06.
 No special actions if energy rises.
 Fock matrices will be formed incrementally for  20 cycles.
 Integral accuracy reduced to 1.0D-05 until final iterations.

 Cycle   1  Pass 0  IDiag  1:
 FoFJK:  IHMeth= 1 ICntrl=       0 DoSepK=F KAlg= 0 I1Cent=           0 FoldK=F
 IRaf= 990000000 NMat=       1 IRICut=       1 DoRegI=T DoRafI=F ISym2E= 0 IDoP0=0 IntGTp=1.
 FoFCou: FMM=T IPFlag=           0 FMFlag=      100000 FMFlg1=        2001
         NFxFlg=           0 DoJE=F BraDBF=F KetDBF=F FulRan=T
         wScrn=  0.000000 ICntrl=         0 IOpCl=  0 I1Cent=           0 NGrid=           0
         NMat0=    1 NMatS0=      1 NMatT0=    0 NMatD0=    1 NMtDS0=    0 NMtDT0=    0
 Symmetry not used in FoFCou.
 FMM levels:  10  Number of levels for PrismC:   9
 E= -1990.28866862252    
 DIIS: error= 2.45D-02 at cycle   1 NSaved=   1.
 NSaved= 1 IEnMin= 1 EnMin= -1990.28866862252     IErMin= 1 ErrMin= 2.45D-02
 ErrMax= 2.45D-02  0.00D+00 EMaxC= 1.00D-01 BMatC= 1.25D+00 BMatP= 1.25D+00
 IDIUse=3 WtCom= 7.55D-01 WtEn= 2.45D-01
 Coeff-Com:  0.100D+01
 Coeff-En:   0.100D+01
 Coeff:      0.100D+01
 Gap=     0.363 Goal=   None    Shift=    0.000
 GapD=    0.363 DampG=1.000 DampE=0.500 DampFc=0.5000 IDamp=-1.
 Damping current iteration by 5.00D-01
 RMSDP=3.50D-03 MaxDP=3.48D-01              OVMax= 2.05D-01

 Cycle   2  Pass 0  IDiag  1:
 RMSU=  1.74D-03    CP:  9.88D-01
 E= -1990.80323406371     Delta-E=       -0.514565441181 Rises=F Damp=T
 DIIS: error= 7.22D-03 at cycle   2 NSaved=   2.
 NSaved= 2 IEnMin= 2 EnMin= -1990.80323406371     IErMin= 2 ErrMin= 7.22D-03
 ErrMax= 7.22D-03  0.00D+00 EMaxC= 1.00D-01 BMatC= 9.41D-02 BMatP= 1.25D+00
 IDIUse=3 WtCom= 9.28D-01 WtEn= 7.22D-02
 Coeff-Com: -0.243D-01 0.102D+01
 Coeff-En:   0.000D+00 0.100D+01
 Coeff:     -0.225D-01 0.102D+01
 Gap=     0.259 Goal=   None    Shift=    0.000
 RMSDP=8.77D-04 MaxDP=7.76D-02 DE=-5.15D-01 OVMax= 1.32D-01

 Cycle   3  Pass 0  IDiag  1:
 RMSU=  8.63D-04    CP:  9.82D-01  9.30D-01
 E= -1991.31297598244     Delta-E=       -0.509741918733 Rises=F Damp=F
 DIIS: error= 8.20D-03 at cycle   3 NSaved=   3.
 NSaved= 3 IEnMin= 3 EnMin= -1991.31297598244     IErMin= 2 ErrMin= 7.22D-03
 ErrMax= 8.20D-03  0.00D+00 EMaxC= 1.00D-01 BMatC= 5.24D-02 BMatP= 9.41D-02
 IDIUse=3 WtCom= 9.18D-01 WtEn= 8.20D-02
 Coeff-Com: -0.702D-01 0.446D+00 0.624D+00
 Coeff-En:   0.000D+00 0.000D+00 0.100D+01
 Coeff:     -0.644D-01 0.409D+00 0.655D+00
 Gap=     0.234 Goal=   None    Shift=    0.000
 RMSDP=5.31D-04 MaxDP=3.67D-02 DE=-5.10D-01 OVMax= 6.40D-02

 Cycle   4  Pass 0  IDiag  1:
 RMSU=  3.45D-04    CP:  9.85D-01  1.04D+00  5.94D-01
 E= -1991.34499124714     Delta-E=       -0.032015264696 Rises=F Damp=F
 DIIS: error= 3.93D-03 at cycle   4 NSaved=   4.
 NSaved= 4 IEnMin= 4 EnMin= -1991.34499124714     IErMin= 4 ErrMin= 3.93D-03
 ErrMax= 3.93D-03  0.00D+00 EMaxC= 1.00D-01 BMatC= 1.31D-02 BMatP= 5.24D-02
 IDIUse=3 WtCom= 9.61D-01 WtEn= 3.93D-02
 Coeff-Com: -0.275D-01 0.900D-01 0.360D+00 0.578D+00
 Coeff-En:   0.000D+00 0.000D+00 0.213D+00 0.787D+00
 Coeff:     -0.264D-01 0.864D-01 0.354D+00 0.586D+00
 Gap=     0.225 Goal=   None    Shift=    0.000
 RMSDP=2.13D-04 MaxDP=1.24D-02 DE=-3.20D-02 OVMax= 3.14D-02

 Cycle   5  Pass 0  IDiag  1:
 RMSU=  8.71D-05    CP:  9.84D-01  1.02D+00  7.30D-01  5.61D-01
 E= -1991.35587016718     Delta-E=       -0.010878920041 Rises=F Damp=F
 DIIS: error= 9.88D-04 at cycle   5 NSaved=   5.
 NSaved= 5 IEnMin= 5 EnMin= -1991.35587016718     IErMin= 5 ErrMin= 9.88D-04
 ErrMax= 9.88D-04  0.00D+00 EMaxC= 1.00D-01 BMatC= 6.04D-04 BMatP= 1.31D-02
 IDIUse=3 WtCom= 9.90D-01 WtEn= 9.88D-03
 Coeff-Com: -0.904D-02 0.209D-01 0.136D+00 0.285D+00 0.566D+00
 Coeff-En:   0.000D+00 0.000D+00 0.000D+00 0.000D+00 0.100D+01
 Coeff:     -0.895D-02 0.207D-01 0.135D+00 0.283D+00 0.571D+00
 Gap=     0.225 Goal=   None    Shift=    0.000
 RMSDP=5.14D-05 MaxDP=3.84D-03 DE=-1.09D-02 OVMax= 9.48D-03

 Cycle   6  Pass 0  IDiag  1:
 RMSU=  2.76D-05    CP:  9.83D-01  1.03D+00  7.28D-01  6.32D-01  5.93D-01
 E= -1991.35639450144     Delta-E=       -0.000524334260 Rises=F Damp=F
 DIIS: error= 3.21D-04 at cycle   6 NSaved=   6.
 NSaved= 6 IEnMin= 6 EnMin= -1991.35639450144     IErMin= 6 ErrMin= 3.21D-04
 ErrMax= 3.21D-04  0.00D+00 EMaxC= 1.00D-01 BMatC= 6.08D-05 BMatP= 6.04D-04
 IDIUse=3 WtCom= 9.97D-01 WtEn= 3.21D-03
 Coeff-Com: -0.170D-02 0.157D-02 0.304D-01 0.814D-01 0.292D+00 0.596D+00
 Coeff-En:   0.000D+00 0.000D+00 0.000D+00 0.000D+00 0.494D-02 0.995D+00
 Coeff:     -0.170D-02 0.156D-02 0.303D-01 0.811D-01 0.292D+00 0.597D+00
 Gap=     0.226 Goal=   None    Shift=    0.000
 RMSDP=1.52D-05 MaxDP=8.92D-04 DE=-5.24D-04 OVMax= 2.50D-03

 Cycle   7  Pass 0  IDiag  1:
 RMSU=  9.51D-06    CP:  9.83D-01  1.02D+00  7.30D-01  6.32D-01  6.78D-01
                    CP:  6.80D-01
 E= -1991.35645280668     Delta-E=       -0.000058305241 Rises=F Damp=F
 DIIS: error= 5.40D-05 at cycle   7 NSaved=   7.
 NSaved= 7 IEnMin= 7 EnMin= -1991.35645280668     IErMin= 7 ErrMin= 5.40D-05
 ErrMax= 5.40D-05  0.00D+00 EMaxC= 1.00D-01 BMatC= 3.85D-06 BMatP= 6.08D-05
 IDIUse=1 WtCom= 1.00D+00 WtEn= 0.00D+00
 Coeff-Com:  0.187D-03-0.138D-02-0.142D-02 0.526D-02 0.706D-01 0.252D+00
 Coeff-Com:  0.675D+00
 Coeff:      0.187D-03-0.138D-02-0.142D-02 0.526D-02 0.706D-01 0.252D+00
 Coeff:      0.675D+00
 Gap=     0.226 Goal=   None    Shift=    0.000
 RMSDP=4.45D-06 MaxDP=2.43D-04 DE=-5.83D-05 OVMax= 5.58D-04

 Initial convergence to 1.0D-05 achieved.  Increase integral accuracy.
 Cycle   8  Pass 1  IDiag  1:
 E= -1991.35647425670     Delta-E=       -0.000021450021 Rises=F Damp=F
 DIIS: error= 2.09D-04 at cycle   1 NSaved=   1.
 NSaved= 1 IEnMin= 1 EnMin= -1991.35647425670     IErMin= 1 ErrMin= 2.09D-04
 ErrMax= 2.09D-04  0.00D+00 EMaxC= 1.00D-01 BMatC= 1.35D-05 BMatP= 1.35D-05
 IDIUse=3 WtCom= 9.98D-01 WtEn= 2.09D-03
 Coeff-Com:  0.100D+01
 Coeff-En:   0.100D+01
 Coeff:      0.100D+01
 Gap=     0.226 Goal=   None    Shift=    0.000
 RMSDP=4.45D-06 MaxDP=2.43D-04 DE=-2.15D-05 OVMax= 4.83D-04

 Cycle   9  Pass 1  IDiag  1:
 RMSU=  7.57D-05    CP:  1.00D+00
 E= -1991.35648654945     Delta-E=       -0.000012292754 Rises=F Damp=F
 DIIS: error= 2.00D-05 at cycle   2 NSaved=   2.
 NSaved= 2 IEnMin= 2 EnMin= -1991.35648654945     IErMin= 2 ErrMin= 2.00D-05
 ErrMax= 2.00D-05  0.00D+00 EMaxC= 1.00D-01 BMatC= 7.42D-07 BMatP= 1.35D-05
 IDIUse=1 WtCom= 1.00D+00 WtEn= 0.00D+00
 Coeff-Com:  0.636D-01 0.936D+00
 Coeff:      0.636D-01 0.936D+00
 Gap=     0.226 Goal=   None    Shift=    0.000
 RMSDP=3.81D-06 MaxDP=2.06D-04 DE=-1.23D-05 OVMax= 3.67D-04

 Cycle  10  Pass 1  IDiag  1:
 RMSU=  3.12D-06    CP:  1.00D+00  1.03D+00
 E= -1991.35648624783     Delta-E=        0.000000301623 Rises=F Damp=F
 DIIS: error= 3.37D-05 at cycle   3 NSaved=   3.
 NSaved= 3 IEnMin= 2 EnMin= -1991.35648654945     IErMin= 2 ErrMin= 2.00D-05
 ErrMax= 3.37D-05  0.00D+00 EMaxC= 1.00D-01 BMatC= 1.14D-06 BMatP= 7.42D-07
 IDIUse=1 WtCom= 1.00D+00 WtEn= 0.00D+00
 Coeff-Com: -0.145D-01 0.559D+00 0.456D+00
 Coeff:     -0.145D-01 0.559D+00 0.456D+00
 Gap=     0.226 Goal=   None    Shift=    0.000
 RMSDP=1.75D-06 MaxDP=1.25D-04 DE= 3.02D-07 OVMax= 2.29D-04

 Cycle  11  Pass 1  IDiag  1:
 RMSU=  6.47D-07    CP:  1.00D+00  1.03D+00  4.89D-01
 E= -1991.35648720288     Delta-E=       -0.000000955050 Rises=F Damp=F
 DIIS: error= 4.31D-06 at cycle   4 NSaved=   4.
 NSaved= 4 IEnMin= 4 EnMin= -1991.35648720288     IErMin= 4 ErrMin= 4.31D-06
 ErrMax= 4.31D-06  0.00D+00 EMaxC= 1.00D-01 BMatC= 1.23D-08 BMatP= 7.42D-07
 IDIUse=1 WtCom= 1.00D+00 WtEn= 0.00D+00
 Coeff-Com: -0.820D-02 0.258D+00 0.222D+00 0.529D+00
 Coeff:     -0.820D-02 0.258D+00 0.222D+00 0.529D+00
 Gap=     0.226 Goal=   None    Shift=    0.000
 RMSDP=2.32D-07 MaxDP=1.28D-05 DE=-9.55D-07 OVMax= 4.10D-05

 Cycle  12  Pass 1  IDiag  1:
 RMSU=  2.05D-07    CP:  1.00D+00  1.03D+00  5.10D-01  8.72D-01
 E= -1991.35648721440     Delta-E=       -0.000000011525 Rises=F Damp=F
 DIIS: error= 1.46D-06 at cycle   5 NSaved=   5.
 NSaved= 5 IEnMin= 5 EnMin= -1991.35648721440     IErMin= 5 ErrMin= 1.46D-06
 ErrMax= 1.46D-06  0.00D+00 EMaxC= 1.00D-01 BMatC= 1.01D-09 BMatP= 1.23D-08
 IDIUse=1 WtCom= 1.00D+00 WtEn= 0.00D+00
 Coeff-Com: -0.827D-03 0.108D-01 0.113D-01 0.207D+00 0.772D+00
 Coeff:     -0.827D-03 0.108D-01 0.113D-01 0.207D+00 0.772D+00
 Gap=     0.226 Goal=   None    Shift=    0.000
 RMSDP=9.10D-08 MaxDP=4.57D-06 DE=-1.15D-08 OVMax= 1.43D-05

 Cycle  13  Pass 1  IDiag  1:
 RMSU=  7.03D-08    CP:  1.00D+00  1.03D+00  5.12D-01  9.52D-01  9.05D-01
 E= -1991.35648721547     Delta-E=       -0.000000001070 Rises=F Damp=F
 DIIS: error= 5.49D-07 at cycle   6 NSaved=   6.
 NSaved= 6 IEnMin= 6 EnMin= -1991.35648721547     IErMin= 6 ErrMin= 5.49D-07
 ErrMax= 5.49D-07  0.00D+00 EMaxC= 1.00D-01 BMatC= 2.60D-10 BMatP= 1.01D-09
 IDIUse=1 WtCom= 1.00D+00 WtEn= 0.00D+00
 Coeff-Com:  0.857D-03-0.351D-01-0.297D-01 0.359D-01 0.420D+00 0.608D+00
 Coeff:      0.857D-03-0.351D-01-0.297D-01 0.359D-01 0.420D+00 0.608D+00
 Gap=     0.226 Goal=   None    Shift=    0.000
 RMSDP=3.84D-08 MaxDP=2.25D-06 DE=-1.07D-09 OVMax= 6.11D-06

 Cycle  14  Pass 1  IDiag  1:
 RMSU=  2.81D-08    CP:  1.00D+00  1.03D+00  5.13D-01  9.73D-01  9.89D-01
                    CP:  8.08D-01
 E= -1991.35648721568     Delta-E=       -0.000000000206 Rises=F Damp=F
 DIIS: error= 1.52D-07 at cycle   7 NSaved=   7.
 NSaved= 7 IEnMin= 7 EnMin= -1991.35648721568     IErMin= 7 ErrMin= 1.52D-07
 ErrMax= 1.52D-07  0.00D+00 EMaxC= 1.00D-01 BMatC= 1.92D-11 BMatP= 2.60D-10
 IDIUse=1 WtCom= 1.00D+00 WtEn= 0.00D+00
 Coeff-Com:  0.445D-03-0.161D-01-0.141D-01-0.670D-03 0.109D+00 0.268D+00
 Coeff-Com:  0.653D+00
 Coeff:      0.445D-03-0.161D-01-0.141D-01-0.670D-03 0.109D+00 0.268D+00
 Coeff:      0.653D+00
 Gap=     0.226 Goal=   None    Shift=    0.000
 RMSDP=1.10D-08 MaxDP=6.58D-07 DE=-2.06D-10 OVMax= 2.14D-06

 Cycle  15  Pass 1  IDiag  1:
 RMSU=  8.52D-09    CP:  1.00D+00  1.03D+00  5.13D-01  9.79D-01  9.94D-01
                    CP:  8.91D-01  1.02D+00
 E= -1991.35648721567     Delta-E=        0.000000000007 Rises=F Damp=F
 DIIS: error= 5.42D-08 at cycle   8 NSaved=   8.
 NSaved= 8 IEnMin= 7 EnMin= -1991.35648721568     IErMin= 8 ErrMin= 5.42D-08
 ErrMax= 5.42D-08  0.00D+00 EMaxC= 1.00D-01 BMatC= 2.14D-12 BMatP= 1.92D-11
 IDIUse=1 WtCom= 1.00D+00 WtEn= 0.00D+00
 Coeff-Com:  0.446D-05 0.619D-03 0.124D-03-0.601D-02-0.431D-01-0.121D-01
 Coeff-Com:  0.229D+00 0.831D+00
 Coeff:      0.446D-05 0.619D-03 0.124D-03-0.601D-02-0.431D-01-0.121D-01
 Coeff:      0.229D+00 0.831D+00
 Gap=     0.226 Goal=   None    Shift=    0.000
 RMSDP=4.93D-09 MaxDP=2.76D-07 DE= 7.28D-12 OVMax= 1.03D-06

 SCF Done:  E(RM062X) =  -1991.35648722     A.U. after   15 cycles
            NFock= 15  Conv=0.49D-08     -V/T= 2.0076
 KE= 1.976399566663D+03 PE=-1.459679040787D+04 EE= 5.656741326056D+03
 Leave Link  502 at Thu Feb  7 11:45:15 2019, MaxMem=   104857600 cpu:            3846.5 elap:             160.6
 (Enter /home/xinyan/g16/l601.exe)
 Copying SCF densities to generalized density rwf, IOpCl= 0 IROHF=0.

 **********************************************************************

            Population analysis using the SCF density.

 **********************************************************************

 Orbital symmetries:
       Occupied  (A) (A) (A) (A) (A) (A) (A) (A) (A) (A) (A) (A)
                 (A) (A) (A) (A) (A) (A) (A) (A) (A) (A) (A) (A)
                 (A) (A) (A) (A) (A) (A) (A) (A) (A) (A) (A) (A)
                 (A) (A) (A) (A) (A) (A) (A) (A) (A) (A) (A) (A)
                 (A) (A) (A) (A) (A) (A) (A) (A) (A) (A) (A) (A)
                 (A) (A) (A) (A) (A) (A) (A) (A) (A) (A) (A) (A)
                 (A) (A) (A) (A) (A) (A) (A) (A) (A) (A) (A) (A)
                 (A) (A) (A) (A) (A) (A) (A) (A) (A) (A) (A) (A)
                 (A) (A) (A) (A) (A) (A) (A) (A) (A) (A) (A) (A)
                 (A) (A) (A) (A) (A) (A) (A) (A) (A) (A) (A) (A)
                 (A) (A) (A) (A) (A) (A) (A) (A) (A) (A) (A) (A)
                 (A) (A) (A) (A) (A) (A) (A) (A)
       Virtual   (A) (A) (A) (A) (A) (A) (A) (A) (A) (A) (A) (A)
                 (A) (A) (A) (A) (A) (A) (A) (A) (A) (A) (A) (A)
                 (A) (A) (A) (A) (A) (A) (A) (A) (A) (A) (A) (A)
                 (A) (A) (A) (A) (A) (A) (A) (A) (A) (A) (A) (A)
                 (A) (A) (A) (A) (A) (A) (A) (A) (A) (A) (A) (A)
                 (A) (A) (A) (A) (A) (A) (A) (A) (A) (A) (A) (A)
                 (A) (A) (A) (A) (A) (A) (A) (A) (A) (A) (A) (A)
                 (A) (A) (A) (A) (A) (A) (A) (A) (A) (A) (A) (A)
                 (A) (A) (A) (A) (A) (A) (A) (A) (A) (A) (A) (A)
                 (A) (A) (A) (A) (A) (A) (A) (A) (A) (A) (A) (A)
                 (A) (A) (A) (A) (A) (A) (A) (A) (A) (A) (A) (A)
                 (A) (A) (A) (A) (A) (A) (A) (A) (A) (A) (A) (A)
                 (A) (A) (A) (A) (A) (A) (A) (A) (A) (A) (A) (A)
                 (A) (A) (A) (A) (A) (A) (A) (A) (A) (A) (A) (A)
                 (A) (A) (A) (A) (A) (A) (A) (A) (A) (A) (A) (A)
                 (A) (A) (A) (A) (A) (A) (A) (A) (A) (A) (A) (A)
                 (A) (A) (A) (A) (A) (A) (A) (A) (A) (A) (A) (A)
                 (A) (A) (A) (A) (A) (A) (A) (A) (A) (A) (A) (A)
                 (A) (A) (A) (A) (A) (A) (A) (A) (A) (A) (A) (A)
                 (A) (A) (A) (A) (A) (A) (A) (A) (A) (A) (A) (A)
                 (A) (A) (A) (A) (A) (A) (A) (A) (A) (A) (A) (A)
                 (A) (A) (A) (A) (A) (A) (A) (A) (A) (A) (A) (A)
                 (A) (A) (A) (A) (A) (A) (A) (A) (A) (A) (A) (A)
                 (A) (A) (A) (A) (A) (A) (A) (A) (A) (A) (A) (A)
                 (A) (A) (A) (A) (A) (A) (A) (A) (A) (A) (A) (A)
                 (A) (A) (A) (A) (A) (A) (A) (A) (A) (A) (A) (A)
                 (A) (A) (A) (A) (A) (A) (A) (A) (A) (A) (A) (A)
                 (A) (A) (A) (A) (A) (A) (A) (A) (A) (A) (A) (A)
                 (A) (A) (A) (A) (A) (A) (A) (A) (A) (A) (A) (A)
                 (A) (A) (A) (A) (A) (A) (A) (A) (A) (A) (A) (A)
                 (A) (A) (A) (A) (A) (A) (A) (A) (A) (A) (A) (A)
                 (A) (A) (A) (A) (A) (A) (A) (A) (A) (A) (A) (A)
                 (A) (A) (A) (A) (A) (A) (A) (A) (A) (A) (A) (A)
                 (A) (A) (A) (A) (A) (A) (A) (A) (A) (A) (A) (A)
                 (A) (A) (A) (A) (A) (A) (A) (A) (A) (A) (A) (A)
                 (A) (A) (A) (A) (A) (A) (A) (A) (A) (A) (A) (A)
                 (A) (A) (A) (A) (A) (A) (A) (A) (A) (A) (A) (A)
                 (A) (A) (A) (A) (A) (A) (A) (A) (A) (A) (A) (A)
                 (A) (A) (A) (A) (A) (A) (A) (A) (A) (A) (A) (A)
                 (A) (A) (A) (A) (A) (A) (A) (A) (A) (A) (A) (A)
                 (A) (A) (A) (A) (A) (A)
 The electronic state is 1-A.
 Alpha  occ. eigenvalues --  -90.14722 -19.62295 -19.62163 -19.58475 -19.56658
 Alpha  occ. eigenvalues --  -19.50567 -14.85294 -14.80220 -14.76753 -10.63299
 Alpha  occ. eigenvalues --  -10.62740 -10.62238 -10.61961 -10.61049 -10.59804
 Alpha  occ. eigenvalues --  -10.58019 -10.57898 -10.57758 -10.57125 -10.56902
 Alpha  occ. eigenvalues --  -10.56889 -10.56058 -10.55861 -10.55056 -10.54957
 Alpha  occ. eigenvalues --  -10.54864 -10.54826 -10.54707 -10.54633 -10.54491
 Alpha  occ. eigenvalues --  -10.54388 -10.54352 -10.52961 -10.51156 -10.51083
 Alpha  occ. eigenvalues --  -10.49426  -8.45694  -6.37919  -6.37880  -6.37729
 Alpha  occ. eigenvalues --   -1.22509  -1.13608  -1.13025  -1.10751  -1.09097
 Alpha  occ. eigenvalues --   -1.05688  -1.02407  -0.99236  -0.95891  -0.95061
 Alpha  occ. eigenvalues --   -0.93561  -0.90273  -0.88696  -0.86386  -0.85374
 Alpha  occ. eigenvalues --   -0.84888  -0.84818  -0.83915  -0.83129  -0.83034
 Alpha  occ. eigenvalues --   -0.76677  -0.75942  -0.75703  -0.74213  -0.73189
 Alpha  occ. eigenvalues --   -0.71805  -0.68248  -0.68149  -0.67844  -0.67492
 Alpha  occ. eigenvalues --   -0.66526  -0.65447  -0.64796  -0.63476  -0.60497
 Alpha  occ. eigenvalues --   -0.60316  -0.59784  -0.59561  -0.57808  -0.57686
 Alpha  occ. eigenvalues --   -0.57287  -0.56492  -0.55816  -0.55126  -0.54310
 Alpha  occ. eigenvalues --   -0.53614  -0.52983  -0.52665  -0.52462  -0.52011
 Alpha  occ. eigenvalues --   -0.51656  -0.50864  -0.50323  -0.49930  -0.49354
 Alpha  occ. eigenvalues --   -0.49148  -0.48994  -0.48316  -0.48124  -0.47888
 Alpha  occ. eigenvalues --   -0.47751  -0.47588  -0.47130  -0.46210  -0.45931
 Alpha  occ. eigenvalues --   -0.45117  -0.44844  -0.44310  -0.43821  -0.43270
 Alpha  occ. eigenvalues --   -0.42581  -0.42229  -0.41146  -0.41073  -0.40921
 Alpha  occ. eigenvalues --   -0.40717  -0.40525  -0.39963  -0.39833  -0.39319
 Alpha  occ. eigenvalues --   -0.39205  -0.39018  -0.38431  -0.38299  -0.37851
 Alpha  occ. eigenvalues --   -0.37283  -0.36576  -0.36408  -0.36051  -0.34973
 Alpha  occ. eigenvalues --   -0.34447  -0.34186  -0.31869  -0.31235  -0.29856
 Alpha  occ. eigenvalues --   -0.28947  -0.28662  -0.27750  -0.24099  -0.23945
 Alpha virt. eigenvalues --   -0.01382   0.00425   0.03391   0.03678   0.10124
 Alpha virt. eigenvalues --    0.10653   0.11391   0.12468   0.13181   0.13253
 Alpha virt. eigenvalues --    0.14124   0.14372   0.14788   0.15393   0.15566
 Alpha virt. eigenvalues --    0.16215   0.16489   0.16886   0.17212   0.17713
 Alpha virt. eigenvalues --    0.17891   0.18184   0.18257   0.18643   0.19019
 Alpha virt. eigenvalues --    0.19191   0.19516   0.19960   0.20025   0.20203
 Alpha virt. eigenvalues --    0.20529   0.20889   0.21237   0.21310   0.21417
 Alpha virt. eigenvalues --    0.22036   0.22343   0.22697   0.22951   0.23550
 Alpha virt. eigenvalues --    0.23699   0.24101   0.24519   0.24695   0.24734
 Alpha virt. eigenvalues --    0.25160   0.25477   0.25762   0.26193   0.26679
 Alpha virt. eigenvalues --    0.27004   0.27378   0.27882   0.28338   0.28464
 Alpha virt. eigenvalues --    0.28964   0.29302   0.29613   0.30621   0.30750
 Alpha virt. eigenvalues --    0.31086   0.31641   0.31793   0.32253   0.32677
 Alpha virt. eigenvalues --    0.33382   0.34184   0.35319   0.35437   0.35808
 Alpha virt. eigenvalues --    0.36237   0.37306   0.37559   0.37974   0.38865
 Alpha virt. eigenvalues --    0.39861   0.40360   0.40506   0.42656   0.42827
 Alpha virt. eigenvalues --    0.44011   0.44551   0.47485   0.47644   0.48930
 Alpha virt. eigenvalues --    0.49298   0.50930   0.52500   0.53285   0.54665
 Alpha virt. eigenvalues --    0.55070   0.55424   0.56036   0.56901   0.57193
 Alpha virt. eigenvalues --    0.57394   0.57998   0.58599   0.59148   0.59536
 Alpha virt. eigenvalues --    0.59758   0.60000   0.60337   0.60540   0.60798
 Alpha virt. eigenvalues --    0.61109   0.61653   0.62380   0.62459   0.62893
 Alpha virt. eigenvalues --    0.63685   0.63892   0.64389   0.64770   0.65683
 Alpha virt. eigenvalues --    0.66031   0.66236   0.66896   0.67544   0.67937
 Alpha virt. eigenvalues --    0.68175   0.68858   0.69237   0.70042   0.70721
 Alpha virt. eigenvalues --    0.70769   0.71477   0.71840   0.72914   0.73170
 Alpha virt. eigenvalues --    0.73673   0.74336   0.74745   0.74897   0.75952
 Alpha virt. eigenvalues --    0.76590   0.77333   0.77727   0.78172   0.78874
 Alpha virt. eigenvalues --    0.79407   0.79887   0.80082   0.80474   0.80836
 Alpha virt. eigenvalues --    0.81735   0.82010   0.82949   0.83804   0.84360
 Alpha virt. eigenvalues --    0.84786   0.85130   0.85522   0.85633   0.86549
 Alpha virt. eigenvalues --    0.87748   0.88386   0.89054   0.89285   0.89709
 Alpha virt. eigenvalues --    0.89959   0.90206   0.90775   0.90808   0.91328
 Alpha virt. eigenvalues --    0.91509   0.91939   0.92499   0.92703   0.93343
 Alpha virt. eigenvalues --    0.93516   0.93991   0.94532   0.94872   0.95097
 Alpha virt. eigenvalues --    0.95549   0.95729   0.96539   0.96736   0.96977
 Alpha virt. eigenvalues --    0.97051   0.97734   0.97853   0.98241   0.98617
 Alpha virt. eigenvalues --    0.99082   0.99476   0.99714   0.99953   1.00885
 Alpha virt. eigenvalues --    1.01190   1.01497   1.02206   1.02609   1.02932
 Alpha virt. eigenvalues --    1.03133   1.04174   1.04286   1.04555   1.05422
 Alpha virt. eigenvalues --    1.06173   1.06982   1.07327   1.08304   1.08732
 Alpha virt. eigenvalues --    1.09304   1.10321   1.10881   1.11307   1.11950
 Alpha virt. eigenvalues --    1.12952   1.13369   1.14120   1.14425   1.15535
 Alpha virt. eigenvalues --    1.15866   1.16917   1.18411   1.18833   1.19050
 Alpha virt. eigenvalues --    1.19528   1.19799   1.20684   1.21058   1.21331
 Alpha virt. eigenvalues --    1.22317   1.23746   1.24226   1.24806   1.25376
 Alpha virt. eigenvalues --    1.26251   1.26494   1.28158   1.28636   1.29448
 Alpha virt. eigenvalues --    1.30923   1.31617   1.32007   1.32527   1.33040
 Alpha virt. eigenvalues --    1.33630   1.34394   1.35170   1.35832   1.36556
 Alpha virt. eigenvalues --    1.37016   1.38410   1.39098   1.40215   1.40948
 Alpha virt. eigenvalues --    1.41708   1.42242   1.43767   1.44928   1.46833
 Alpha virt. eigenvalues --    1.46986   1.48051   1.48345   1.49514   1.50216
 Alpha virt. eigenvalues --    1.50988   1.51991   1.52613   1.52634   1.54266
 Alpha virt. eigenvalues --    1.54733   1.55083   1.55498   1.56480   1.57061
 Alpha virt. eigenvalues --    1.57579   1.58235   1.60167   1.60478   1.61233
 Alpha virt. eigenvalues --    1.62199   1.62766   1.63595   1.65116   1.67063
 Alpha virt. eigenvalues --    1.69158   1.69437   1.69971   1.71925   1.73189
 Alpha virt. eigenvalues --    1.73716   1.74991   1.75636   1.76706   1.77073
 Alpha virt. eigenvalues --    1.78260   1.79925   1.80723   1.80894   1.82699
 Alpha virt. eigenvalues --    1.83378   1.83701   1.84960   1.85472   1.85820
 Alpha virt. eigenvalues --    1.86577   1.86916   1.87552   1.88001   1.88370
 Alpha virt. eigenvalues --    1.89375   1.89875   1.90473   1.90736   1.91453
 Alpha virt. eigenvalues --    1.92562   1.93675   1.93950   1.94491   1.94705
 Alpha virt. eigenvalues --    1.94970   1.95716   1.96458   1.97220   1.97346
 Alpha virt. eigenvalues --    1.98631   1.98921   1.99650   1.99876   2.00536
 Alpha virt. eigenvalues --    2.01146   2.02209   2.02366   2.02866   2.04211
 Alpha virt. eigenvalues --    2.05060   2.05508   2.05814   2.06351   2.07012
 Alpha virt. eigenvalues --    2.07394   2.07765   2.08758   2.09457   2.10070
 Alpha virt. eigenvalues --    2.10192   2.10661   2.11036   2.11598   2.12182
 Alpha virt. eigenvalues --    2.12773   2.13792   2.14316   2.14740   2.15493
 Alpha virt. eigenvalues --    2.15938   2.16371   2.17607   2.18468   2.19255
 Alpha virt. eigenvalues --    2.19396   2.19889   2.20427   2.21208   2.21645
 Alpha virt. eigenvalues --    2.22398   2.22803   2.23127   2.23803   2.24008
 Alpha virt. eigenvalues --    2.24956   2.25096   2.25718   2.26863   2.27460
 Alpha virt. eigenvalues --    2.28637   2.29199   2.30070   2.30547   2.31448
 Alpha virt. eigenvalues --    2.31855   2.33889   2.34771   2.35031   2.35335
 Alpha virt. eigenvalues --    2.35755   2.37106   2.37557   2.38157   2.38631
 Alpha virt. eigenvalues --    2.39345   2.40738   2.41044   2.41151   2.42002
 Alpha virt. eigenvalues --    2.43092   2.44470   2.45500   2.46398   2.47085
 Alpha virt. eigenvalues --    2.48906   2.49986   2.51672   2.52352   2.52700
 Alpha virt. eigenvalues --    2.53654   2.54059   2.55714   2.56874   2.59754
 Alpha virt. eigenvalues --    2.61089   2.61751   2.61972   2.62232   2.63406
 Alpha virt. eigenvalues --    2.64293   2.64845   2.65366   2.66934   2.68343
 Alpha virt. eigenvalues --    2.69064   2.69380   2.70078   2.71692   2.72445
 Alpha virt. eigenvalues --    2.72991   2.74387   2.75995   2.76358   2.77728
 Alpha virt. eigenvalues --    2.79284   2.79826   2.80520   2.80831   2.81601
 Alpha virt. eigenvalues --    2.83446   2.85596   2.86187   2.86601   2.88358
 Alpha virt. eigenvalues --    2.89508   2.90973   2.92850   2.93543   2.96699
 Alpha virt. eigenvalues --    2.99961   3.00590   3.02292   3.05328   3.10538
 Alpha virt. eigenvalues --    3.14760   3.16840   3.24040   3.41520   3.42649
 Alpha virt. eigenvalues --    3.93833   4.00694   4.03672   4.09027   4.10801
 Alpha virt. eigenvalues --    4.14938   4.15848   4.16197   4.17839   4.19251
 Alpha virt. eigenvalues --    4.20804   4.22411   4.24097   4.25934   4.27397
 Alpha virt. eigenvalues --    4.28936   4.31434   4.32669   4.34541   4.34982
 Alpha virt. eigenvalues --    4.39395   4.39843   4.41057   4.43594   4.45958
 Alpha virt. eigenvalues --    4.46805   4.55284   4.58099   4.59248   4.61073
 Alpha virt. eigenvalues --    4.62786   4.66065   4.73381   4.75202   4.76817
 Alpha virt. eigenvalues --    4.79115
          Condensed to atoms (all electrons):
 Mulliken charges:
               1
     1  C   -0.306414
     2  C   -0.307670
     3  C   -0.310380
     4  C   -0.058712
     5  C    0.057194
     6  C   -0.308996
     7  H    0.175274
     8  H    0.163125
     9  H    0.166721
    10  H    0.151005
    11  H    0.164951
    12  H    0.206995
    13  H    0.175743
    14  H    0.194678
    15  H    0.163325
    16  H    0.156014
    17  N   -0.436180
    18  C    0.072862
    19  C    0.069850
    20  C   -0.204917
    21  H    0.204763
    22  C   -0.213953
    23  H    0.243355
    24  C    0.448912
    25  H    0.192516
    26  H    0.210697
    27  N   -0.521325
    28  C   -0.168239
    29  H    0.167795
    30  H    0.225104
    31  C   -0.149363
    32  H    0.161962
    33  H    0.206043
    34  N   -0.800073
    35  S    1.245652
    36  O   -0.604582
    37  O   -0.595829
    38  C    0.064966
    39  C   -0.194531
    40  C   -0.191415
    41  C   -0.172621
    42  C   -0.165141
    43  C   -0.207889
    44  H    0.226175
    45  H    0.140590
    46  H    0.155278
    47  H    0.158784
    48  H    0.152643
    49  O   -0.571236
    50  H    0.439110
    51  C    0.718985
    52  O   -0.711864
    53  O   -0.711262
    54  H    0.434914
    55  C   -0.339222
    56  H    0.144974
    57  H    0.149937
    58  C   -0.083985
    59  H    0.134592
    60  H    0.151617
    61  C   -0.664675
    62  H    0.275312
    63  H    0.199018
    64  H    0.220505
    65  C   -0.286964
    66  H    0.137174
    67  H    0.142455
    68  C   -0.474052
    69  H    0.147908
    70  H    0.151040
    71  H    0.147508
    72  C   -0.333391
    73  H    0.185807
    74  H    0.160876
    75  C   -0.340351
    76  H    0.202762
    77  H    0.167763
 Sum of Mulliken charges =  -0.00000
 Mulliken charges with hydrogens summed into heavy atoms:
               1
     1  C    0.009542
     2  C    0.022176
     3  C    0.020908
     4  C    0.148283
     5  C    0.232936
     6  C    0.049007
    17  N   -0.436180
    18  C    0.277625
    19  C    0.313205
    20  C   -0.012401
    22  C   -0.003256
    24  C    0.448912
    27  N   -0.521325
    28  C    0.224660
    31  C    0.218642
    34  N   -0.360963
    35  S    1.245652
    36  O   -0.604582
    37  O   -0.595829
    38  C    0.064966
    39  C    0.031645
    40  C   -0.050826
    41  C   -0.017343
    42  C   -0.006357
    43  C   -0.055246
    49  O   -0.571236
    51  C    0.718985
    52  O   -0.711864
    53  O   -0.276348
    55  C   -0.044311
    58  C    0.202224
    61  C    0.030161
    65  C   -0.007335
    68  C   -0.027596
    72  C    0.013292
    75  C    0.030174
 Electronic spatial extent (au):  <R**2>=          14499.9049
 Charge=              0.0000 electrons
 Dipole moment (field-independent basis, Debye):
    X=             -3.3920    Y=             -2.0870    Z=             -5.9282  Tot=              7.1417
 Quadrupole moment (field-independent basis, Debye-Ang):
   XX=           -207.7597   YY=           -221.6930   ZZ=           -219.4514
   XY=            -13.0355   XZ=             -4.4105   YZ=             10.4325
 Traceless Quadrupole moment (field-independent basis, Debye-Ang):
   XX=              8.5417   YY=             -5.3916   ZZ=             -3.1500
   XY=            -13.0355   XZ=             -4.4105   YZ=             10.4325
 Octapole moment (field-independent basis, Debye-Ang**2):
  XXX=              4.6826  YYY=            -52.9954  ZZZ=             15.4291  XYY=              5.0139
  XXY=            -26.9369  XXZ=            -42.0289  XZZ=            -22.7724  YZZ=             13.9642
  YYZ=             20.8847  XYZ=            -18.5549
 Hexadecapole moment (field-independent basis, Debye-Ang**3):
 XXXX=          -9975.3063 YYYY=          -5438.4208 ZZZZ=          -3601.8063 XXXY=           -206.5255
 XXXZ=             -4.0901 YYYX=            -93.3052 YYYZ=             41.5746 ZZZX=           -101.6864
 ZZZY=             11.4412 XXYY=          -2581.1854 XXZZ=          -2362.4970 YYZZ=          -1613.3671
 XXYZ=             47.2796 YYXZ=             46.0321 ZZXY=            -59.3314
 N-N= 4.972293027932D+03 E-N=-1.459679038283D+04  KE= 1.976399566663D+03
 No NMR shielding tensors so no spin-rotation constants.
 Leave Link  601 at Thu Feb  7 11:45:17 2019, MaxMem=   104857600 cpu:              29.2 elap:               1.4
 (Enter /home/xinyan/g16/l701.exe)
 ... and contract with generalized density number  0.
 Compute integral first derivatives.
 R6Disp: Adding Grimme-D3 dispersion energy 1st derivatives to the gradient.
 Leave Link  701 at Thu Feb  7 11:45:18 2019, MaxMem=   104857600 cpu:              18.8 elap:               0.8
 (Enter /home/xinyan/g16/l702.exe)
 L702 exits ... SP integral derivatives will be done elsewhere.
 Leave Link  702 at Thu Feb  7 11:45:18 2019, MaxMem=   104857600 cpu:               1.4 elap:               0.1
 (Enter /home/xinyan/g16/l703.exe)
 Integral derivatives from FoFJK, PRISM(SPDF).
 Compute integral first derivatives, UseDBF=F ICtDFT=           0.
 Calling FoFJK, ICntrl=      2127 FMM=T ISym2X=0 I1Cent= 0 IOpClX= 0 NMat=1 NMatS=1 NMatT=0.
 FoFJK:  IHMeth= 1 ICntrl=    2127 DoSepK=F KAlg= 0 I1Cent=           0 FoldK=F
 IRaf=         0 NMat=       1 IRICut=       1 DoRegI=T DoRafI=F ISym2E= 0 IDoP0=0 IntGTp=1.
 FoFCou: FMM=T IPFlag=           0 FMFlag=      100000 FMFlg1=        2001
         NFxFlg=           0 DoJE=F BraDBF=F KetDBF=F FulRan=T
         wScrn=  0.000000 ICntrl=      2127 IOpCl=  0 I1Cent=           0 NGrid=           0
         NMat0=    1 NMatS0=      1 NMatT0=    0 NMatD0=    1 NMtDS0=    0 NMtDT0=    0
 Symmetry not used in FoFCou.
 FMM levels:  10  Number of levels for PrismC:   9
 Leave Link  703 at Thu Feb  7 11:45:51 2019, MaxMem=   104857600 cpu:             801.1 elap:              33.5
 (Enter /home/xinyan/g16/l716.exe)
 Dipole        =-1.33450819D+00-8.21080682D-01-2.33233353D+00
 ***** Axes restored to original set *****
 -------------------------------------------------------------------
 Center     Atomic                   Forces (Hartrees/Bohr)
 Number     Number              X              Y              Z
 -------------------------------------------------------------------
      1        6           0.000051228   -0.000010552   -0.000016861
      2        6           0.000031171    0.000003670    0.000034998
      3        6           0.000006219   -0.000018417   -0.000006007
      4        6           0.000057766    0.000021517   -0.000009578
      5        6           0.000113080    0.000011315   -0.000135553
      6        6           0.000101596    0.000020905    0.000000024
      7        1          -0.000021599   -0.000024643   -0.000007137
      8        1           0.000025444    0.000019353    0.000015218
      9        1           0.000004215    0.000017785    0.000028967
     10        1           0.000023312   -0.000005042   -0.000019154
     11        1           0.000074387    0.000016070    0.000029845
     12        1           0.000016415   -0.000030094    0.000050657
     13        1           0.000033064   -0.000064466   -0.000110426
     14        1           0.000103178    0.000054756   -0.000031754
     15        1           0.000126270    0.000031420   -0.000036179
     16        1          -0.000014865   -0.000025602   -0.000051117
     17        7          -0.000012269   -0.000056918   -0.000020123
     18        6           0.000011123   -0.000017478   -0.000057844
     19        6          -0.000007761   -0.000012116   -0.000029989
     20        6           0.000005863   -0.000022201   -0.000037127
     21        1           0.000033522   -0.000010483   -0.000005875
     22        6           0.000005622   -0.000032737   -0.000010336
     23        1          -0.000006398   -0.000049131   -0.000049081
     24        6          -0.000037538   -0.000028740    0.000015825
     25        1           0.000030943    0.000014148    0.000019789
     26        1           0.000006619   -0.000016976   -0.000004376
     27        7           0.000015186    0.000089923    0.000030697
     28        6          -0.000009284    0.000041752    0.000066752
     29        1          -0.000004240    0.000033340    0.000053707
     30        1          -0.000023421    0.000023015    0.000049725
     31        6          -0.000037311    0.000052620    0.000083644
     32        1          -0.000038935    0.000119024    0.000076630
     33        1          -0.000033907    0.000085685    0.000124395
     34        7          -0.000349692   -0.000164609    0.000109853
     35       16           0.000126760    0.000069705   -0.000103897
     36        8           0.000042407    0.000050765   -0.000098050
     37        8           0.000052096    0.000004500   -0.000079966
     38        6           0.000012576    0.000015155    0.000069977
     39        6          -0.000010845    0.000093854   -0.000001446
     40        6          -0.000010286    0.000077206    0.000075253
     41        6          -0.000044538    0.000037997    0.000081998
     42        6          -0.000020457   -0.000049643    0.000106228
     43        6          -0.000025631   -0.000058401    0.000046464
     44        1           0.000054000    0.000067790   -0.000039389
     45        1          -0.000001863    0.000161758    0.000010427
     46        1          -0.000051174    0.000053020    0.000085788
     47        1          -0.000046752   -0.000060806    0.000131441
     48        1          -0.000021578   -0.000105031    0.000103321
     49        8           0.000309432    0.000107965   -0.000115057
     50        1           0.000518977   -0.000124311   -0.000368820
     51        6          -0.000468885    0.000036043    0.000207640
     52        8          -0.000309938    0.000072668    0.000220745
     53        8           0.000031839   -0.000065890    0.000073054
     54        1          -0.000055322    0.000023643    0.000160415
     55        6          -0.000028757   -0.000009317   -0.000090298
     56        1           0.000071095   -0.000084968   -0.000071141
     57        1          -0.000040374   -0.000147415   -0.000134250
     58        6           0.000021420    0.000010354    0.000155666
     59        1          -0.000016117    0.000164464   -0.000008242
     60        1          -0.000012163    0.000022739    0.000014133
     61        6           0.000024508    0.000024338   -0.000083069
     62        1          -0.000011491    0.000023397   -0.000032017
     63        1           0.000031710    0.000034318   -0.000126885
     64        1          -0.000039416    0.000027260   -0.000095634
     65        6          -0.000084674   -0.000110140   -0.000097833
     66        1          -0.000126249   -0.000081569   -0.000094973
     67        1          -0.000047134   -0.000044038   -0.000005761
     68        6          -0.000005531   -0.000126235   -0.000112134
     69        1          -0.000023516   -0.000145080   -0.000125646
     70        1           0.000033906   -0.000145289   -0.000101951
     71        1          -0.000025062   -0.000182151   -0.000151390
     72        6          -0.000002434    0.000042480    0.000060699
     73        1          -0.000014444    0.000037462    0.000056623
     74        1          -0.000021558    0.000066384    0.000053712
     75        6          -0.000042426    0.000023033    0.000094169
     76        1           0.000016200    0.000070601    0.000101654
     77        1          -0.000017315    0.000055288    0.000076232
 -------------------------------------------------------------------
 Cartesian Forces:  Max     0.000518977 RMS     0.000093486
 Z-matrix is all fixed cartesians, so copy forces.
 Leave Link  716 at Thu Feb  7 11:45:51 2019, MaxMem=   104857600 cpu:               2.3 elap:               0.1
 (Enter /home/xinyan/g16/l103.exe)

 GradGradGradGradGradGradGradGradGradGradGradGradGradGradGradGradGradGrad
 Berny optimization.
 Search for a local minimum.
 Step number   1 out of a maximum of    2
 All quantities printed in internal units (Hartrees-Bohrs-Radians)
 Second derivative matrix not updated -- first step.
 ITU=  0
     Eigenvalues ---    0.00000   0.00000   0.00000   0.00000   0.00000
     Eigenvalues ---    0.00000   0.00004   0.00013   0.00018   0.00021
     Eigenvalues ---    0.00037   0.00038   0.00086   0.00092   0.00113
     Eigenvalues ---    0.00137   0.00138   0.00205   0.00235   0.00291
     Eigenvalues ---    0.00393   0.00412   0.00449   0.00507   0.00587
     Eigenvalues ---    0.00600   0.00626   0.00695   0.00712   0.00842
     Eigenvalues ---    0.00964   0.01107   0.01154   0.01510   0.01644
     Eigenvalues ---    0.01674   0.01873   0.01899   0.02040   0.02142
     Eigenvalues ---    0.02283   0.02309   0.02464   0.02529   0.02872
     Eigenvalues ---    0.02936   0.03058   0.03089   0.03232   0.03477
     Eigenvalues ---    0.03533   0.03759   0.03885   0.04184   0.04298
     Eigenvalues ---    0.04374   0.04803   0.04816   0.04845   0.04931
     Eigenvalues ---    0.05023   0.05064   0.05115   0.05127   0.05151
     Eigenvalues ---    0.05174   0.05246   0.05341   0.05471   0.05583
     Eigenvalues ---    0.05651   0.05673   0.05726   0.05749   0.05803
     Eigenvalues ---    0.05975   0.06132   0.06329   0.06562   0.06614
     Eigenvalues ---    0.06834   0.06841   0.06973   0.06997   0.07115
     Eigenvalues ---    0.07140   0.07229   0.07273   0.07334   0.07382
     Eigenvalues ---    0.07628   0.07823   0.07870   0.07928   0.08092
     Eigenvalues ---    0.08483   0.08560   0.08887   0.09060   0.09686
     Eigenvalues ---    0.09749   0.10176   0.10486   0.11281   0.11524
     Eigenvalues ---    0.11796   0.12175   0.12651   0.12829   0.12862
     Eigenvalues ---    0.12922   0.13036   0.13371   0.13676   0.13887
     Eigenvalues ---    0.14124   0.14402   0.14652   0.15667   0.15977
     Eigenvalues ---    0.16025   0.16174   0.16749   0.16955   0.17024
     Eigenvalues ---    0.17288   0.17325   0.17824   0.17896   0.19578
     Eigenvalues ---    0.19720   0.20354   0.20681   0.21508   0.21647
     Eigenvalues ---    0.23174   0.23418   0.24001   0.24845   0.26377
     Eigenvalues ---    0.27460   0.28496   0.29470   0.30023   0.30733
     Eigenvalues ---    0.31433   0.32367   0.34016   0.34709   0.36265
     Eigenvalues ---    0.36544   0.39388   0.40159   0.40959   0.43186
     Eigenvalues ---    0.43547   0.44505   0.48070   0.49162   0.50209
     Eigenvalues ---    0.53207   0.56751   0.57305   0.59822   0.64537
     Eigenvalues ---    0.65517   0.66020   0.67118   0.68182   0.68776
     Eigenvalues ---    0.70470   0.77391   0.77950   0.78811   0.81649
     Eigenvalues ---    0.83059   0.83363   0.85287   0.85974   0.87385
     Eigenvalues ---    0.88188   0.88680   0.90547   0.91331   0.93261
     Eigenvalues ---    0.94421   0.94834   0.94883   0.95833   0.96444
     Eigenvalues ---    0.98021   0.98133   0.99541   1.00276   1.00496
     Eigenvalues ---    1.00845   1.04118   1.04339   1.04562   1.06181
     Eigenvalues ---    1.06457   1.06771   1.07014   1.08648   1.09265
     Eigenvalues ---    1.13956   1.15489   1.15733   1.18107   1.19460
     Eigenvalues ---    1.21400   1.23935   1.27148   1.27395   1.37118
     Eigenvalues ---    1.47223   1.53464   1.58154   1.59065   1.59512
     Eigenvalues ---    1.62858   1.66779   1.73042   1.84383   2.36442
 Eigenvalue     1 is   2.22D-16 Eigenvector:
                          Y46       Y47       Y41       Y42       Y45
   1                    0.13439   0.13439   0.13439   0.13439   0.13439
                          Y40       Y43       Y48       Y39       Y38
   1                    0.13439   0.13439   0.13439   0.13439   0.13439
 Eigenvalue     2 is   4.69D-08 Eigenvector:
                          Y46       Y47       Y41       X54       Y42
   1                    0.24076   0.21110   0.19958  -0.18895   0.18298
                          Y45       X53       Y40       X52       X51
   1                    0.17519  -0.16897   0.16274  -0.15833  -0.14188
 Eigenvalue     3 is   6.89D-08 Eigenvector:
                          Z47       X46       Z46       Z42       X45
   1                    0.20291  -0.18908   0.18044   0.17049  -0.16907
                          Z71       Z41       Z48       X41       Z69
   1                   -0.15911   0.15803   0.15106  -0.14885  -0.14546
 Eigenvalue     4 is   1.62D-07 Eigenvector:
                          Z77       Z76       Z57       Z53       Z54
   1                    0.18624   0.17763  -0.16956  -0.16121  -0.16027
                          Z75       Z71       Y64       Z33       Z66
   1                    0.15918  -0.15867  -0.15263   0.14868  -0.14616
 Eigenvalue     5 is   2.43D-07 Eigenvector:
                          Z47       Y9        Y64       Y71       Y46
   1                    0.17727  -0.16178   0.15346  -0.15251   0.14597
                          Y73       Z42       Y47       Z46       Z48
   1                    0.14576   0.14335   0.14212   0.13865   0.13862
 Eigenvalue     6 is   3.98D-07 Eigenvector:
                          Z54       Y59       Y69       Y48       Y45
   1                    0.25050   0.23064  -0.22720   0.21819  -0.19866
                          Z70       Z53       Z69       Y66       Z52
   1                   -0.19236   0.18876  -0.18488  -0.18464   0.16637
 Eigenvalue     7 is   3.95D-05 Eigenvector:
                          X69       X45       X70       Z70       Z69
   1                    0.25356  -0.22593   0.22519   0.22321   0.22270
                          X46       X68       Z68       X67       Y45
   1                   -0.21632   0.20020   0.18129   0.17988  -0.17981
 Quadratic step=6.990D+00 exceeds max=3.000D-01 adjusted using Lamda=-2.897D-03.
 Angle between NR and scaled steps=  25.19 degrees.
 Angle between quadratic step and forces=  45.73 degrees.
 Linear search not attempted -- first point.
 B after Tr=    -0.000362    0.000373    0.000660
         Rot=    1.000000   -0.000158    0.000090   -0.000076 Ang=  -0.02 deg.
 Variable       Old X    -DE/DX   Delta X   Delta X   Delta X     New X
                                 (Linear)    (Quad)   (Total)
    X1       -9.40020   0.00005   0.00000   0.01658   0.01630  -9.38390
    Y1        0.43553  -0.00001   0.00000   0.00454   0.00375   0.43928
    Z1       -0.82110  -0.00002   0.00000  -0.00436  -0.00524  -0.82635
    X2       -9.69280   0.00003   0.00000   0.00526   0.00562  -9.68718
    Y2       -1.98404   0.00000   0.00000   0.00078   0.00045  -1.98360
    Z2       -2.38249   0.00003   0.00000   0.00340   0.00169  -2.38080
    X3       -7.14583   0.00001   0.00000  -0.00101  -0.00032  -7.14615
    Y3       -2.81265  -0.00002   0.00000  -0.00867  -0.00827  -2.82092
    Z3       -3.48806  -0.00001   0.00000  -0.00424  -0.00575  -3.49381
    X4       -5.27785   0.00006   0.00000   0.00484   0.00521  -5.27264
    Y4       -3.22280   0.00002   0.00000  -0.00762  -0.00762  -3.23042
    Z4       -1.33207  -0.00001   0.00000  -0.00926  -0.01057  -1.34264
    X5       -4.91996   0.00011   0.00000   0.01790   0.01762  -4.90234
    Y5       -0.76139   0.00001   0.00000  -0.00381  -0.00424  -0.76563
    Z5        0.20887  -0.00014   0.00000  -0.02001  -0.02047   0.18840
    X6       -7.45703   0.00010   0.00000   0.02547   0.02486  -7.43217
    Y6        0.10732   0.00002   0.00000   0.00759   0.00644   0.11375
    Z6        1.29941   0.00000   0.00000  -0.01216  -0.01280   1.28662
    X7       -7.33389  -0.00002   0.00000  -0.00943  -0.00827  -7.34217
    Y7       -4.54239  -0.00002   0.00000  -0.01115  -0.01042  -4.55281
    Z7       -4.60861  -0.00001   0.00000   0.00102  -0.00109  -4.60969
    X8      -10.44384   0.00003   0.00000   0.00630   0.00668 -10.43716
    Y8       -3.50115   0.00002   0.00000   0.00582   0.00499  -3.49616
    Z8       -1.18291   0.00002   0.00000   0.01037   0.00805  -1.17486
    X9      -11.05208   0.00000   0.00000  -0.00004   0.00055 -11.05153
    Y9       -1.69686   0.00002   0.00000  -0.00002  -0.00008  -1.69694
    Z9       -3.91472   0.00003   0.00000   0.00798   0.00611  -3.90860
   X10       -8.78509   0.00002   0.00000   0.01326   0.01297  -8.77212
   Y10        1.97714  -0.00001   0.00000   0.00017  -0.00013   1.97702
   Z10       -2.06757  -0.00002   0.00000  -0.01131  -0.01160  -2.07917
   X11      -11.22641   0.00007   0.00000   0.02127   0.02076 -11.20565
   Y11        0.99054   0.00002   0.00000   0.00970   0.00838   0.99892
   Z11       -0.02302   0.00003   0.00000   0.00275   0.00172  -0.02130
   X12       -6.00175   0.00002   0.00000   0.00570   0.00606  -5.99569
   Y12       -4.69266  -0.00003   0.00000  -0.00187  -0.00238  -4.69504
   Z12       -0.06899   0.00005   0.00000  -0.00181  -0.00372  -0.07271
   X13       -4.29162   0.00003   0.00000   0.01818   0.01792  -4.27371
   Y13        0.69710  -0.00006   0.00000  -0.01084  -0.01075   0.68635
   Z13       -1.12520  -0.00011   0.00000  -0.02752  -0.02741  -1.15261
   X14       -8.13436   0.00010   0.00000   0.02818   0.02753  -8.10683
   Y14       -1.27797   0.00005   0.00000   0.01450   0.01280  -1.26517
   Z14        2.67939  -0.00003   0.00000  -0.00403  -0.00522   2.67416
   X15       -7.15044   0.00013   0.00000   0.03517   0.03411  -7.11633
   Y15        1.90176   0.00003   0.00000   0.01026   0.00883   1.91060
   Z15        2.28551  -0.00004   0.00000  -0.01991  -0.01992   2.26559
   X16       -6.46683  -0.00001   0.00000  -0.00186  -0.00116  -6.46800
   Y16       -1.30967  -0.00003   0.00000  -0.01361  -0.01270  -1.32238
   Z16       -4.74811  -0.00005   0.00000  -0.01066  -0.01158  -4.75968
   X17       -2.75157  -0.00001   0.00000   0.00182   0.00246  -2.74911
   Y17       -4.08990  -0.00006   0.00000  -0.01253  -0.01188  -4.10178
   Z17       -2.14713  -0.00002   0.00000  -0.01166  -0.01280  -2.15992
   X18       -1.44715   0.00001   0.00000   0.00349   0.00426  -1.44290
   Y18       -2.78748  -0.00002   0.00000  -0.01006  -0.00865  -2.79613
   Z18       -3.93860  -0.00006   0.00000  -0.00859  -0.00908  -3.94768
   X19       -1.44556  -0.00001   0.00000   0.00025   0.00084  -1.44472
   Y19       -5.62624  -0.00001   0.00000  -0.01267  -0.01234  -5.63858
   Z19       -0.55497  -0.00003   0.00000  -0.01055  -0.01193  -0.56691
   X20        1.11195   0.00001   0.00000   0.00417   0.00500   1.11695
   Y20       -2.92065  -0.00002   0.00000  -0.00457  -0.00272  -2.92336
   Z20       -4.14413  -0.00004   0.00000  -0.00155  -0.00162  -4.14575
   X21       -2.55790   0.00003   0.00000   0.00461   0.00541  -2.55248
   Y21       -1.58055  -0.00001   0.00000  -0.00994  -0.00831  -1.58886
   Z21       -5.16150  -0.00001   0.00000  -0.00942  -0.00973  -5.17123
   X22        1.11549   0.00001   0.00000   0.00072   0.00136   1.11684
   Y22       -5.83260  -0.00003   0.00000  -0.00798  -0.00724  -5.83984
   Z22       -0.62342  -0.00001   0.00000  -0.00415  -0.00514  -0.62856
   X23       -2.56319  -0.00001   0.00000  -0.00156  -0.00107  -2.56426
   Y23       -6.59078  -0.00005   0.00000  -0.01513  -0.01541  -6.60619
   Z23        0.86657  -0.00005   0.00000  -0.01363  -0.01553   0.85105
   X24        2.53475  -0.00004   0.00000   0.00166   0.00236   2.53711
   Y24       -4.30614  -0.00003   0.00000  -0.00135   0.00014  -4.30600
   Z24       -2.31898   0.00002   0.00000   0.00275   0.00250  -2.31648
   X25        2.04374   0.00003   0.00000   0.00622   0.00714   2.05088
   Y25       -1.83114   0.00001   0.00000  -0.00094   0.00152  -1.82963
   Z25       -5.60149   0.00002   0.00000   0.00246   0.00291  -5.59858
   X26        2.02522   0.00001   0.00000  -0.00058  -0.00002   2.02520
   Y26       -6.99150  -0.00002   0.00000  -0.00729  -0.00686  -6.99835
   Z26        0.79079  -0.00000   0.00000  -0.00272  -0.00391   0.78688
   X27        5.03810   0.00002   0.00000   0.00062   0.00129   5.03939
   Y27       -4.19145   0.00009   0.00000   0.00881   0.01064  -4.18081
   Z27       -2.20756   0.00003   0.00000   0.01280   0.01304  -2.19452
   X28        6.41203  -0.00001   0.00000  -0.00308  -0.00266   6.40937
   Y28       -5.17022   0.00004   0.00000   0.00924   0.01058  -5.15964
   Z28        0.00291   0.00007   0.00000   0.01525   0.01543   0.01834
   X29        6.16807  -0.00000   0.00000   0.00057   0.00127   6.16933
   Y29       -7.21594   0.00003   0.00000   0.00859   0.00984  -7.20610
   Z29        0.16705   0.00005   0.00000   0.01245   0.01193   0.17899
   X30        5.67570  -0.00002   0.00000  -0.00870  -0.00873   5.66696
   Y30       -4.20715   0.00002   0.00000   0.00594   0.00663  -4.20053
   Z30        1.69051   0.00005   0.00000   0.01471   0.01505   1.70556
   X31        6.46787  -0.00004   0.00000  -0.00385  -0.00327   6.46460
   Y31       -2.16037   0.00005   0.00000   0.01843   0.02087  -2.13950
   Z31       -3.45986   0.00008   0.00000   0.02349   0.02464  -3.43523
   X32        6.98176  -0.00004   0.00000  -0.00109  -0.00008   6.98169
   Y32       -2.74069   0.00012   0.00000   0.02866   0.03179  -2.70890
   Z32       -5.38294   0.00008   0.00000   0.02124   0.02230  -5.36065
   X33        5.31007  -0.00003   0.00000  -0.00837  -0.00804   5.30203
   Y33       -0.45104   0.00009   0.00000   0.01566   0.01793  -0.43311
   Z33       -3.49847   0.00012   0.00000   0.03049   0.03197  -3.46650
   X34       -2.86016  -0.00035   0.00000   0.02256   0.02199  -2.83817
   Y34       -0.93245  -0.00016   0.00000  -0.00668  -0.00737  -0.93982
   Z34        2.02027   0.00011   0.00000  -0.02620  -0.02635   1.99392
   X35       -2.90037   0.00013   0.00000   0.01821   0.01742  -2.88295
   Y35       -2.61995   0.00007   0.00000   0.00309   0.00158  -2.61838
   Z35        4.61027  -0.00010   0.00000  -0.02032  -0.02100   4.58927
   X36       -5.22201   0.00004   0.00000   0.01473   0.01417  -5.20784
   Y36       -4.12695   0.00005   0.00000   0.00846   0.00660  -4.12036
   Z36        4.57578  -0.00010   0.00000  -0.01791  -0.01949   4.55629
   X37       -0.48789   0.00005   0.00000   0.01509   0.01445  -0.47344
   Y37       -3.94802   0.00000   0.00000  -0.00146  -0.00269  -3.95071
   Z37        4.85985  -0.00008   0.00000  -0.01432  -0.01500   4.84485
   X38       -1.27874   0.00001   0.00000  -0.00091  -0.00203  -1.28077
   Y38        4.56322   0.00002   0.00000   0.01303   0.01310   4.57632
   Z38        0.34382   0.00007   0.00000   0.01738   0.01926   0.36307
   X39       -0.33539  -0.00001   0.00000   0.00195   0.00139  -0.33400
   Y39        3.57604   0.00009   0.00000   0.02720   0.02813   3.60417
   Z39       -1.92841  -0.00000   0.00000   0.01207   0.01382  -1.91459
   X40       -1.73212  -0.00001   0.00000  -0.00337  -0.00356  -1.73568
   Y40        3.77796   0.00008   0.00000   0.02596   0.02738   3.80534
   Z40       -4.15418   0.00008   0.00000   0.01521   0.01676  -4.13742
   X41       -4.09396  -0.00004   0.00000  -0.01213  -0.01250  -4.10646
   Y41        4.94710   0.00004   0.00000   0.00837   0.00943   4.95653
   Z41       -4.16985   0.00008   0.00000   0.02380   0.02530  -4.14456
   X42       -5.05145  -0.00002   0.00000  -0.01580  -0.01671  -5.06816
   Y42        5.92741  -0.00005   0.00000  -0.00838  -0.00818   5.91923
   Z42       -1.92183   0.00011   0.00000   0.02942   0.03105  -1.89078
   X43       -3.64802  -0.00003   0.00000  -0.01014  -0.01143  -3.65945
   Y43        5.73418  -0.00006   0.00000  -0.00583  -0.00612   5.72807
   Z43        0.30101   0.00005   0.00000   0.02587   0.02769   0.32870
   X44        1.44953   0.00005   0.00000   0.00966   0.00925   1.45878
   Y44        2.55984   0.00007   0.00000   0.04006   0.04125   2.60109
   Z44       -1.87595  -0.00004   0.00000   0.00426   0.00600  -1.86995
   X45       -0.95429  -0.00000   0.00000  -0.00049  -0.00026  -0.95455
   Y45        3.02402   0.00016   0.00000   0.03980   0.04189   3.06591
   Z45       -5.90260   0.00001   0.00000   0.01050   0.01196  -5.89064
   X46       -5.16810  -0.00005   0.00000  -0.01612  -0.01620  -5.18430
   Y46        5.10710   0.00005   0.00000   0.00802   0.00948   5.11658
   Z46       -5.91244   0.00009   0.00000   0.02623   0.02758  -5.88486
   X47       -6.88573  -0.00005   0.00000  -0.02280  -0.02386  -6.90958
   Y47        6.84997  -0.00006   0.00000  -0.02260  -0.02268   6.82729
   Z47       -1.89793   0.00013   0.00000   0.03665   0.03823  -1.85970
   X48       -4.41174  -0.00002   0.00000  -0.01282  -0.01454  -4.42627
   Y48        6.51596  -0.00011   0.00000  -0.01870  -0.01966   6.49631
   Z48        2.04315   0.00010   0.00000   0.03041   0.03233   2.07548
   X49        1.08279   0.00031   0.00000  -0.00517  -0.00655   1.07624
   Y49        2.21689   0.00011   0.00000   0.02305   0.02239   2.23928
   Z49        3.75770  -0.00012   0.00000   0.02700   0.02857   3.78627
   X50       -1.06911   0.00052   0.00000   0.02558   0.02500  -1.04411
   Y50       -0.33142  -0.00012   0.00000  -0.01887  -0.01913  -0.35055
   Z50        1.52593  -0.00037   0.00000  -0.03436  -0.03399   1.49194
   X51        3.46742  -0.00047   0.00000  -0.02656  -0.02756   3.43987
   Y51        1.00532   0.00004   0.00000  -0.00493  -0.00489   1.00042
   Z51        2.68249   0.00021   0.00000   0.01495   0.01655   2.69903
   X52        2.98615  -0.00031   0.00000  -0.05805  -0.05850   2.92764
   Y52       -0.04067   0.00007   0.00000  -0.01325  -0.01260  -0.05327
   Z52        0.50484   0.00022   0.00000   0.02615   0.02732   0.53216
   X53        4.04057   0.00003   0.00000  -0.02186  -0.02295   4.01762
   Y53       -0.73214  -0.00007   0.00000   0.00188   0.00138  -0.73075
   Z53        4.63744   0.00007   0.00000   0.01999   0.02114   4.65858
   X54        2.72081  -0.00006   0.00000  -0.03321  -0.03409   2.68672
   Y54       -2.01086   0.00002   0.00000   0.01182   0.01115  -1.99970
   Z54        4.52811   0.00016   0.00000   0.04153   0.04204   4.57014
   X55        5.61710  -0.00003   0.00000  -0.00756  -0.00887   5.60823
   Y55        2.98437  -0.00001   0.00000  -0.02377  -0.02342   2.96095
   Z55        2.79137  -0.00009   0.00000  -0.01743  -0.01482   2.77655
   X56        5.29477   0.00007   0.00000   0.02374   0.02195   5.31672
   Y56        4.24988  -0.00008   0.00000  -0.01785  -0.01806   4.23182
   Z56        4.40340  -0.00007   0.00000  -0.01598  -0.01302   4.39038
   X57        7.34960  -0.00004   0.00000  -0.01160  -0.01283   7.33677
   Y57        1.93642  -0.00015   0.00000  -0.03871  -0.03824   1.89818
   Z57        3.24077  -0.00013   0.00000  -0.03661  -0.03403   3.20673
   X58        0.20626   0.00002   0.00000   0.00445   0.00289   0.20916
   Y58        4.53309   0.00001   0.00000   0.02136   0.02086   4.55396
   Z58        2.82677   0.00016   0.00000   0.01439   0.01653   2.84330
   X59       -1.06656  -0.00002   0.00000   0.01156   0.00963  -1.05694
   Y59        5.28250   0.00016   0.00000   0.03776   0.03661   5.31912
   Z59        4.28715  -0.00001   0.00000   0.01223   0.01439   4.30153
   X60        1.76355  -0.00001   0.00000   0.01056   0.00882   1.77237
   Y60        5.90226   0.00002   0.00000   0.01277   0.01256   5.91482
   Z60        2.67379   0.00001   0.00000   0.00124   0.00409   2.67788
   X61       -3.03169   0.00002   0.00000   0.01726   0.01568  -3.01601
   Y61       -0.38433   0.00002   0.00000   0.01132   0.00899  -0.37534
   Z61        7.11274  -0.00008   0.00000  -0.02773  -0.02773   7.08501
   X62       -1.35758  -0.00001   0.00000   0.02010   0.01838  -1.33920
   Y62        0.80878   0.00002   0.00000   0.00739   0.00539   0.81417
   Z62        6.89245  -0.00003   0.00000  -0.02591  -0.02523   6.86722
   X63       -4.77659   0.00003   0.00000   0.01996   0.01825  -4.75833
   Y63        0.69808   0.00003   0.00000   0.01430   0.01177   0.70986
   Z63        6.92466  -0.00013   0.00000  -0.03628  -0.03624   6.88841
   X64       -2.99892  -0.00004   0.00000   0.00898   0.00724  -2.99168
   Y64       -1.43305   0.00003   0.00000   0.01634   0.01345  -1.41961
   Z64        8.88833  -0.00010   0.00000  -0.02466  -0.02499   8.86334
   X65        6.05283  -0.00008   0.00000  -0.02209  -0.02319   6.02964
   Y65        4.50450  -0.00011   0.00000  -0.03126  -0.03009   4.47441
   Z65        0.37815  -0.00010   0.00000  -0.02470  -0.02154   0.35662
   X66        6.53658  -0.00013   0.00000  -0.04778  -0.04841   6.48817
   Y66        3.20583  -0.00008   0.00000  -0.03648  -0.03475   3.17107
   Z66       -1.16218  -0.00009   0.00000  -0.02837  -0.02554  -1.18772
   X67        4.31661  -0.00005   0.00000  -0.02107  -0.02221   4.29440
   Y67        5.45324  -0.00004   0.00000  -0.01832  -0.01722   5.43602
   Z67       -0.23355  -0.00001   0.00000  -0.00740  -0.00425  -0.23780
   X68        8.14206  -0.00001   0.00000  -0.00377  -0.00523   8.13683
   Y68        6.46770  -0.00013   0.00000  -0.04687  -0.04548   6.42222
   Z68        0.72120  -0.00011   0.00000  -0.04710  -0.04295   0.67825
   X69        8.50335  -0.00002   0.00000  -0.01189  -0.01319   8.49016
   Y69        7.52468  -0.00015   0.00000  -0.05119  -0.04919   7.47549
   Z69       -1.01937  -0.00013   0.00000  -0.05137  -0.04682  -1.06619
   X70        7.63181   0.00003   0.00000   0.02022   0.01829   7.65010
   Y70        7.83093  -0.00015   0.00000  -0.04186  -0.04101   7.78992
   Z70        2.19431  -0.00010   0.00000  -0.04341  -0.03891   2.15540
   X71        9.91462  -0.00003   0.00000  -0.00532  -0.00674   9.90788
   Y71        5.56880  -0.00018   0.00000  -0.05989  -0.05841   5.51039
   Z71        1.30319  -0.00015   0.00000  -0.06246  -0.05828   1.24492
   X72        9.13376  -0.00000   0.00000  -0.00356  -0.00317   9.13060
   Y72       -4.39395   0.00004   0.00000   0.01470   0.01662  -4.37733
   Z72       -0.52950   0.00006   0.00000   0.02122   0.02213  -0.50737
   X73       10.26331  -0.00001   0.00000  -0.00600  -0.00593  10.25738
   Y73       -4.32358   0.00004   0.00000   0.01252   0.01406  -4.30952
   Z73        1.19484   0.00006   0.00000   0.02288   0.02401   1.21885
   X74       10.01878  -0.00002   0.00000   0.00006   0.00089  10.01967
   Y74       -5.72440   0.00007   0.00000   0.01900   0.02146  -5.70293
   Z74       -1.84683   0.00005   0.00000   0.01938   0.02003  -1.82680
   X75        8.77938  -0.00004   0.00000  -0.00577  -0.00555   8.77384
   Y75       -1.80304   0.00002   0.00000   0.01695   0.01920  -1.78385
   Z75       -1.75943   0.00009   0.00000   0.02659   0.02826  -1.73117
   X76        8.28743   0.00002   0.00000  -0.00794  -0.00819   8.27924
   Y76       -0.42753   0.00007   0.00000   0.01326   0.01497  -0.41256
   Z76       -0.29750   0.00010   0.00000   0.02941   0.03142  -0.26608
   X77       10.43189  -0.00002   0.00000  -0.00571  -0.00541  10.42648
   Y77       -1.13773   0.00006   0.00000   0.02108   0.02391  -1.11382
   Z77       -2.80131   0.00008   0.00000   0.02931   0.03149  -2.76983
         Item               Value     Threshold  Converged?
 Maximum Force            0.000519     0.000450     NO 
 RMS     Force            0.000093     0.000300     YES
 Maximum Displacement     0.058501     0.001800     NO 
 RMS     Displacement     0.019694     0.001200     NO 
 Predicted change in Energy=-2.813353D-04
 GradGradGradGradGradGradGradGradGradGradGradGradGradGradGradGradGradGrad

 Leave Link  103 at Thu Feb  7 11:45:52 2019, MaxMem=   104857600 cpu:              18.2 elap:               0.8
 (Enter /home/xinyan/g16/l9999.exe)
 1\1\GINC-TSE4\Force\RM062X\6-31G(d)\C27H41N3O5S1\STEVETSE\07-Feb-2019\
 0\\#p M062X/6-31G* em=gd3 force int=ultrafine\\Title\\0,1\C,-4.97437,0
 .23047,-0.43451\C,-5.12921,-1.04991,-1.26076\C,-3.78141,-1.48839,-1.84
 58\C,-2.79292,-1.70543,-0.7049\C,-2.60353,-0.40291,0.11053\C,-3.94609,
 0.05679,0.68762\H,-3.88093,-2.40373,-2.43877\H,-5.52664,-1.85273,-0.62
 597\H,-5.84851,-0.89794,-2.07158\H,-4.64887,1.04626,-1.09411\H,-5.9407
 6,0.52417,-0.01218\H,-3.17599,-2.48325,-0.03651\H,-2.27103,0.36889,-0.
 59543\H,-4.30452,-0.67627,1.41787\H,-3.78385,1.00637,1.20944\H,-3.4221
 ,-0.69305,-2.51259\N,-1.45607,-2.16428,-1.13621\C,-0.7658,-1.47507,-2.
 08422\C,-0.76496,-2.97728,-0.29368\C,0.58842,-1.54554,-2.19298\H,-1.35
 358,-0.83639,-2.73135\C,0.59029,-3.08648,-0.3299\H,-1.35638,-3.48769,0
 .45857\C,1.34133,-2.27871,-1.22715\H,1.0815,-0.969,-2.96418\H,1.0717,-
 3.69974,0.41847\N,2.66605,-2.21802,-1.16819\C,3.3931,-2.73596,0.00154\
 H,3.264,-3.81851,0.0884\H,3.00345,-2.22633,0.89458\C,3.42265,-1.14322,
 -1.83088\H,3.69459,-1.45031,-2.84853\H,2.80997,-0.23868,-1.85131\N,-1.
 51353,-0.49343,1.06908\S,-1.53481,-1.38642,2.43965\O,-2.76337,-2.18389
 ,2.4214\O,-0.25818,-2.0892,2.57172\C,-0.67668,2.41475,0.18194\C,-0.177
 48,1.89236,-1.02047\C,-0.9166,1.99921,-2.1983\C,-2.16643,2.61789,-2.20
 659\C,-2.67311,3.13665,-1.01699\C,-1.93045,3.0344,0.15929\H,0.76706,1.
 35461,-0.99271\H,-0.50499,1.60024,-3.12352\H,-2.73484,2.70256,-3.12873
 \H,-3.64377,3.62485,-1.00434\H,-2.33459,3.4481,1.08119\O,0.57299,1.173
 13,1.98849\H,-0.56575,-0.17538,0.80749\C,1.83488,0.53199,1.41951\O,1.5
 802,-0.02152,0.26715\O,2.13818,-0.38743,2.45403\H,1.43979,-1.0641,2.39
 617\C,2.97244,1.57926,1.47713\H,2.80187,2.24894,2.33018\H,3.88924,1.02
 471,1.71494\C,0.10915,2.39881,1.49586\H,-0.5644,2.79538,2.26866\H,0.93
 323,3.12334,1.41491\C,-1.6043,-0.20338,3.7639\H,-0.7184,0.42799,3.6473
 3\H,-2.52766,0.36941,3.66437\H,-1.58696,-0.75834,4.7035\C,3.20302,2.38
 368,0.20011\H,3.45901,1.69645,-0.615\H,2.28425,2.88573,-0.12359\C,4.30
 859,3.42256,0.38164\H,4.49978,3.98189,-0.53943\H,4.03858,4.14395,1.161
 18\H,5.24659,2.94688,0.68962\C,4.83338,-2.32518,-0.2802\H,5.43111,-2.2
 8794,0.63228\H,5.30171,-3.02922,-0.9773\C,4.64585,-0.95413,-0.93105\H,
 4.38552,-0.22624,-0.15743\H,5.52032,-0.60206,-1.48239\\Version=ES64L-G
 16RevA.03\State=1-A\HF=-1991.3564872\RMSD=4.928e-09\RMSF=9.349e-05\Dip
 ole=-1.2886132,-0.7334133,-2.3867229\Quadrupole=6.6680799,-4.8732292,-
 1.7948508,-9.5452041,-3.6400567,7.4634702\PG=C01 [X(C27H41N3O5S1)]\\@


 DO YOU KNOW THAT THE LETTERS IN "EPISCOPAL", WHEN
 REARRANGED, SPELL "PEPSI COLA"?
 Job cpu time:       0 days  1 hours 22 minutes 24.1 seconds.
 Elapsed time:       0 days  0 hours  3 minutes 27.2 seconds.
 File lengths (MBytes):  RWF=    216 Int=      0 D2E=      0 Chk=     25 Scr=      1
 Normal termination of Gaussian 16 at Thu Feb  7 11:45:52 2019.
