 Entering Gaussian System, Link 0=g16
 Input=C27N3H41SO5-85.gjf
 Output=C27N3H41SO5-85.log
 Initial command:
 /home/xinyan/g16/l1.exe "/local/home/tmp/Gau-2499.inp" -scrdir="/local/home/tmp/"
 Entering Link 1 = /home/xinyan/g16/l1.exe PID=      2500.
  
 Copyright (c) 1988,1990,1992,1993,1995,1998,2003,2009,2016,
            Gaussian, Inc.  All Rights Reserved.
  
 This is part of the Gaussian(R) 16 program.  It is based on
 the Gaussian(R) 09 system (copyright 2009, Gaussian, Inc.),
 the Gaussian(R) 03 system (copyright 2003, Gaussian, Inc.),
 the Gaussian(R) 98 system (copyright 1998, Gaussian, Inc.),
 the Gaussian(R) 94 system (copyright 1995, Gaussian, Inc.),
 the Gaussian 92(TM) system (copyright 1992, Gaussian, Inc.),
 the Gaussian 90(TM) system (copyright 1990, Gaussian, Inc.),
 the Gaussian 88(TM) system (copyright 1988, Gaussian, Inc.),
 the Gaussian 86(TM) system (copyright 1986, Carnegie Mellon
 University), and the Gaussian 82(TM) system (copyright 1983,
 Carnegie Mellon University). Gaussian is a federally registered
 trademark of Gaussian, Inc.
  
 This software contains proprietary and confidential information,
 including trade secrets, belonging to Gaussian, Inc.
  
 This software is provided under written license and may be
 used, copied, transmitted, or stored only in accord with that
 written license.
  
 The following legend is applicable only to US Government
 contracts under FAR:
  
                    RESTRICTED RIGHTS LEGEND
  
 Use, reproduction and disclosure by the US Government is
 subject to restrictions as set forth in subparagraphs (a)
 and (c) of the Commercial Computer Software - Restricted
 Rights clause in FAR 52.227-19.
  
 Gaussian, Inc.
 340 Quinnipiac St., Bldg. 40, Wallingford CT 06492
  
  
 ---------------------------------------------------------------
 Warning -- This program may not be used in any manner that
 competes with the business of Gaussian, Inc. or will provide
 assistance to any competitor of Gaussian, Inc.  The licensee
 of this program is prohibited from giving any competitor of
 Gaussian, Inc. access to this program.  By using this program,
 the user acknowledges that Gaussian, Inc. is engaged in the
 business of creating and licensing software in the field of
 computational chemistry and represents and warrants to the
 licensee that it is not a competitor of Gaussian, Inc. and that
 it will not use this program in any manner prohibited above.
 ---------------------------------------------------------------
  

 Cite this work as:
 Gaussian 16, Revision A.03,
 M. J. Frisch, G. W. Trucks, H. B. Schlegel, G. E. Scuseria, 
 M. A. Robb, J. R. Cheeseman, G. Scalmani, V. Barone, 
 G. A. Petersson, H. Nakatsuji, X. Li, M. Caricato, A. V. Marenich, 
 J. Bloino, B. G. Janesko, R. Gomperts, B. Mennucci, H. P. Hratchian, 
 J. V. Ortiz, A. F. Izmaylov, J. L. Sonnenberg, D. Williams-Young, 
 F. Ding, F. Lipparini, F. Egidi, J. Goings, B. Peng, A. Petrone, 
 T. Henderson, D. Ranasinghe, V. G. Zakrzewski, J. Gao, N. Rega, 
 G. Zheng, W. Liang, M. Hada, M. Ehara, K. Toyota, R. Fukuda, 
 J. Hasegawa, M. Ishida, T. Nakajima, Y. Honda, O. Kitao, H. Nakai, 
 T. Vreven, K. Throssell, J. A. Montgomery, Jr., J. E. Peralta, 
 F. Ogliaro, M. J. Bearpark, J. J. Heyd, E. N. Brothers, K. N. Kudin, 
 V. N. Staroverov, T. A. Keith, R. Kobayashi, J. Normand, 
 K. Raghavachari, A. P. Rendell, J. C. Burant, S. S. Iyengar, 
 J. Tomasi, M. Cossi, J. M. Millam, M. Klene, C. Adamo, R. Cammi, 
 J. W. Ochterski, R. L. Martin, K. Morokuma, O. Farkas, 
 J. B. Foresman, and D. J. Fox, Gaussian, Inc., Wallingford CT, 2016.
 
 ******************************************
 Gaussian 16:  ES64L-G16RevA.03 25-Dec-2016
                 7-Feb-2019 
 ******************************************
 %nproc=24
 Will use up to   24 processors via shared memory.
 ------------------------------------------
 #p M062X/6-31G* em=gd3 force int=ultrafine
 ------------------------------------------
 1/10=7,30=1,38=1/1,3;
 2/12=2,17=6,18=5,40=1/2;
 3/5=1,6=6,7=1,11=2,25=1,30=1,71=1,74=-55,75=-5,124=31/1,2,3;
 4//1;
 5/5=2,38=5/2;
 6/7=2,8=2,9=2,10=2,28=1/1;
 7/29=1/1,2,3,16;
 1/10=7,30=1/3;
 99//99;
 Leave Link    1 at Thu Feb  7 13:16:12 2019, MaxMem=           0 cpu:               2.1 elap:               0.1
 (Enter /home/xinyan/g16/l101.exe)
 -----
 Title
 -----
 Symbolic Z-matrix:
 Charge =  0 Multiplicity = 1
 C                    -4.92173   0.24601  -0.42913 
 C                    -5.10618  -1.03375  -1.25031 
 C                    -3.77378  -1.48949  -1.85748 
 C                    -2.77338  -1.71559  -0.7297 
 C                    -2.54741  -0.41351   0.07982 
 C                    -3.87572   0.06504   0.6758 
 H                    -3.89462  -2.40575  -2.44515 
 H                    -5.50138  -1.8312   -0.60737 
 H                    -5.83814  -0.87448  -2.04834 
 H                    -4.60071   1.05652  -1.09683 
 H                    -5.87711   0.55059   0.01038 
 H                    -3.15931  -2.48396  -0.05265 
 H                    -2.21585   0.35167  -0.63371 
 H                    -4.23207  -0.66141   1.41353 
 H                    -3.69524   1.01473   1.1909 
 H                    -3.41534  -0.70125  -2.53322 
 N                    -1.44695  -2.19399  -1.17209 
 C                    -0.74903  -1.49275  -2.10545 
 C                    -0.76263  -3.01119  -0.32796 
 C                     0.60715  -1.55084  -2.19356 
 H                    -1.33293  -0.8517   -2.75429 
 C                     0.59399  -3.11001  -0.34451 
 H                    -1.36119  -3.52806   0.41436 
 C                     1.34915  -2.28104  -1.21719 
 H                     1.10777  -0.9637   -2.95166 
 H                     1.06959  -3.72346   0.40741 
 N                     2.67103  -2.19349  -1.1279 
 C                     3.3898   -2.70301   0.04972 
 H                     3.26361  -3.78538   0.14078 
 H                     2.99155  -2.19227   0.93872 
 C                     3.41438  -1.1011   -1.77351 
 H                     3.67576  -1.38171  -2.80131 
 H                     2.79087  -0.20299  -1.77056 
 N                    -1.44282  -0.52486   1.02062 
 S                    -1.50311  -1.40373   2.39614 
 O                    -2.72486  -2.21291   2.36256 
 O                    -0.22665  -2.10138   2.56621 
 C                    -0.68901   2.43655   0.21863 
 C                    -0.1894    1.95352  -1.00108 
 C                    -0.93929   2.06655  -2.17059 
 C                    -2.20389   2.65501  -2.15671 
 C                    -2.71248   3.13485  -0.95264 
 C                    -1.95706   3.02587   0.21521 
 H                     0.76432   1.43639  -1.00021 
 H                    -0.52476   1.69692  -3.10647 
 H                    -2.78153   2.74549  -3.07253 
 H                    -3.69446   3.59892  -0.92062 
 H                    -2.36316   3.41266   1.1479 
 O                     0.56757   1.24506   2.07475 
 H                    -0.46737  -0.2771    0.72549 
 C                     1.74854   0.54603   1.46317 
 O                     1.40222  -0.02645   0.33345 
 O                     2.08917  -0.36707   2.4907 
 H                     1.39556  -1.05036   2.45903 
 C                     2.93583   1.5415    1.43437 
 H                     2.83598   2.22664   2.28702 
 H                     3.83722   0.94966   1.63909 
 C                     0.10927   2.44928   1.52697 
 H                    -0.5527    2.88092   2.28952 
 H                     0.94021   3.16165   1.41282 
 C                    -1.62107  -0.21616   3.7133 
 H                    -0.7347    0.41881   3.62811 
 H                    -2.54024   0.35576   3.57494 
 H                    -1.64211  -0.768     4.65454 
 C                     3.14975   2.32946   0.1447 
 H                     3.33613   1.63231  -0.68079 
 H                     2.24814   2.88196  -0.13964 
 C                     4.31568   3.30828   0.27704 
 H                     4.49534   3.85883  -0.6515 
 H                     4.11612   4.04048   1.06759 
 H                     5.23997   2.78365   0.54495 
 C                     4.83076  -2.29197  -0.22914 
 H                     5.42751  -2.25274   0.68383 
 H                     5.29903  -2.99833  -0.92368 
 C                     4.64868  -0.92191  -0.88515 
 H                     4.4126   -0.18556  -0.11235 
 H                     5.52108  -0.58195  -1.4471 
 
 ITRead=  0  0  0  0  0  0  0  0  0  0  0  0  0  0  0  0  0  0  0  0
 ITRead=  0  0  0  0  0  0  0  0  0  0  0  0  0  0  0  0  0  0  0  0
 ITRead=  0  0  0  0  0  0  0  0  0  0  0  0  0  0  0  0  0  0  0  0
 ITRead=  0  0  0  0  0  0  0  0  0  0  0  0  0  0  0  0  0
 MicOpt= -1 -1 -1 -1 -1 -1 -1 -1 -1 -1 -1 -1 -1 -1 -1 -1 -1 -1 -1 -1
 MicOpt= -1 -1 -1 -1 -1 -1 -1 -1 -1 -1 -1 -1 -1 -1 -1 -1 -1 -1 -1 -1
 MicOpt= -1 -1 -1 -1 -1 -1 -1 -1 -1 -1 -1 -1 -1 -1 -1 -1 -1 -1 -1 -1
 MicOpt= -1 -1 -1 -1 -1 -1 -1 -1 -1 -1 -1 -1 -1 -1 -1 -1 -1
 NAtoms=     77 NQM=       77 NQMF=       0 NMMI=      0 NMMIF=      0
                NMic=       0 NMicF=      0.
                    Isotopes and Nuclear Properties:
 (Nuclear quadrupole moments (NQMom) in fm**2, nuclear magnetic moments (NMagM)
  in nuclear magnetons)

  Atom         1           2           3           4           5           6           7           8           9          10
 IAtWgt=          12          12          12          12          12          12           1           1           1           1
 AtmWgt=  12.0000000  12.0000000  12.0000000  12.0000000  12.0000000  12.0000000   1.0078250   1.0078250   1.0078250   1.0078250
 NucSpn=           0           0           0           0           0           0           1           1           1           1
 AtZEff=  -0.0000000  -0.0000000  -0.0000000  -0.0000000  -0.0000000  -0.0000000  -0.0000000  -0.0000000  -0.0000000  -0.0000000
 NQMom=    0.0000000   0.0000000   0.0000000   0.0000000   0.0000000   0.0000000   0.0000000   0.0000000   0.0000000   0.0000000
 NMagM=    0.0000000   0.0000000   0.0000000   0.0000000   0.0000000   0.0000000   2.7928460   2.7928460   2.7928460   2.7928460
 AtZNuc=   6.0000000   6.0000000   6.0000000   6.0000000   6.0000000   6.0000000   1.0000000   1.0000000   1.0000000   1.0000000

  Atom        11          12          13          14          15          16          17          18          19          20
 IAtWgt=           1           1           1           1           1           1          14          12          12          12
 AtmWgt=   1.0078250   1.0078250   1.0078250   1.0078250   1.0078250   1.0078250  14.0030740  12.0000000  12.0000000  12.0000000
 NucSpn=           1           1           1           1           1           1           2           0           0           0
 AtZEff=  -0.0000000  -0.0000000  -0.0000000  -0.0000000  -0.0000000  -0.0000000  -0.0000000  -0.0000000  -0.0000000  -0.0000000
 NQMom=    0.0000000   0.0000000   0.0000000   0.0000000   0.0000000   0.0000000   2.0440000   0.0000000   0.0000000   0.0000000
 NMagM=    2.7928460   2.7928460   2.7928460   2.7928460   2.7928460   2.7928460   0.4037610   0.0000000   0.0000000   0.0000000
 AtZNuc=   1.0000000   1.0000000   1.0000000   1.0000000   1.0000000   1.0000000   7.0000000   6.0000000   6.0000000   6.0000000

  Atom        21          22          23          24          25          26          27          28          29          30
 IAtWgt=           1          12           1          12           1           1          14          12           1           1
 AtmWgt=   1.0078250  12.0000000   1.0078250  12.0000000   1.0078250   1.0078250  14.0030740  12.0000000   1.0078250   1.0078250
 NucSpn=           1           0           1           0           1           1           2           0           1           1
 AtZEff=  -0.0000000  -0.0000000  -0.0000000  -0.0000000  -0.0000000  -0.0000000  -0.0000000  -0.0000000  -0.0000000  -0.0000000
 NQMom=    0.0000000   0.0000000   0.0000000   0.0000000   0.0000000   0.0000000   2.0440000   0.0000000   0.0000000   0.0000000
 NMagM=    2.7928460   0.0000000   2.7928460   0.0000000   2.7928460   2.7928460   0.4037610   0.0000000   2.7928460   2.7928460
 AtZNuc=   1.0000000   6.0000000   1.0000000   6.0000000   1.0000000   1.0000000   7.0000000   6.0000000   1.0000000   1.0000000

  Atom        31          32          33          34          35          36          37          38          39          40
 IAtWgt=          12           1           1          14          32          16          16          12          12          12
 AtmWgt=  12.0000000   1.0078250   1.0078250  14.0030740  31.9720718  15.9949146  15.9949146  12.0000000  12.0000000  12.0000000
 NucSpn=           0           1           1           2           0           0           0           0           0           0
 AtZEff=  -0.0000000  -0.0000000  -0.0000000  -0.0000000  -0.0000000  -0.0000000  -0.0000000  -0.0000000  -0.0000000  -0.0000000
 NQMom=    0.0000000   0.0000000   0.0000000   2.0440000   0.0000000   0.0000000   0.0000000   0.0000000   0.0000000   0.0000000
 NMagM=    0.0000000   2.7928460   2.7928460   0.4037610   0.0000000   0.0000000   0.0000000   0.0000000   0.0000000   0.0000000
 AtZNuc=   6.0000000   1.0000000   1.0000000   7.0000000  16.0000000   8.0000000   8.0000000   6.0000000   6.0000000   6.0000000

  Atom        41          42          43          44          45          46          47          48          49          50
 IAtWgt=          12          12          12           1           1           1           1           1          16           1
 AtmWgt=  12.0000000  12.0000000  12.0000000   1.0078250   1.0078250   1.0078250   1.0078250   1.0078250  15.9949146   1.0078250
 NucSpn=           0           0           0           1           1           1           1           1           0           1
 AtZEff=  -0.0000000  -0.0000000  -0.0000000  -0.0000000  -0.0000000  -0.0000000  -0.0000000  -0.0000000  -0.0000000  -0.0000000
 NQMom=    0.0000000   0.0000000   0.0000000   0.0000000   0.0000000   0.0000000   0.0000000   0.0000000   0.0000000   0.0000000
 NMagM=    0.0000000   0.0000000   0.0000000   2.7928460   2.7928460   2.7928460   2.7928460   2.7928460   0.0000000   2.7928460
 AtZNuc=   6.0000000   6.0000000   6.0000000   1.0000000   1.0000000   1.0000000   1.0000000   1.0000000   8.0000000   1.0000000

  Atom        51          52          53          54          55          56          57          58          59          60
 IAtWgt=          12          16          16           1          12           1           1          12           1           1
 AtmWgt=  12.0000000  15.9949146  15.9949146   1.0078250  12.0000000   1.0078250   1.0078250  12.0000000   1.0078250   1.0078250
 NucSpn=           0           0           0           1           0           1           1           0           1           1
 AtZEff=  -0.0000000  -0.0000000  -0.0000000  -0.0000000  -0.0000000  -0.0000000  -0.0000000  -0.0000000  -0.0000000  -0.0000000
 NQMom=    0.0000000   0.0000000   0.0000000   0.0000000   0.0000000   0.0000000   0.0000000   0.0000000   0.0000000   0.0000000
 NMagM=    0.0000000   0.0000000   0.0000000   2.7928460   0.0000000   2.7928460   2.7928460   0.0000000   2.7928460   2.7928460
 AtZNuc=   6.0000000   8.0000000   8.0000000   1.0000000   6.0000000   1.0000000   1.0000000   6.0000000   1.0000000   1.0000000

  Atom        61          62          63          64          65          66          67          68          69          70
 IAtWgt=          12           1           1           1          12           1           1          12           1           1
 AtmWgt=  12.0000000   1.0078250   1.0078250   1.0078250  12.0000000   1.0078250   1.0078250  12.0000000   1.0078250   1.0078250
 NucSpn=           0           1           1           1           0           1           1           0           1           1
 AtZEff=  -0.0000000  -0.0000000  -0.0000000  -0.0000000  -0.0000000  -0.0000000  -0.0000000  -0.0000000  -0.0000000  -0.0000000
 NQMom=    0.0000000   0.0000000   0.0000000   0.0000000   0.0000000   0.0000000   0.0000000   0.0000000   0.0000000   0.0000000
 NMagM=    0.0000000   2.7928460   2.7928460   2.7928460   0.0000000   2.7928460   2.7928460   0.0000000   2.7928460   2.7928460
 AtZNuc=   6.0000000   1.0000000   1.0000000   1.0000000   6.0000000   1.0000000   1.0000000   6.0000000   1.0000000   1.0000000

  Atom        71          72          73          74          75          76          77
 IAtWgt=           1          12           1           1          12           1           1
 AtmWgt=   1.0078250  12.0000000   1.0078250   1.0078250  12.0000000   1.0078250   1.0078250
 NucSpn=           1           0           1           1           0           1           1
 AtZEff=  -0.0000000  -0.0000000  -0.0000000  -0.0000000  -0.0000000  -0.0000000  -0.0000000
 NQMom=    0.0000000   0.0000000   0.0000000   0.0000000   0.0000000   0.0000000   0.0000000
 NMagM=    2.7928460   0.0000000   2.7928460   2.7928460   0.0000000   2.7928460   2.7928460
 AtZNuc=   1.0000000   6.0000000   1.0000000   1.0000000   6.0000000   1.0000000   1.0000000
 Leave Link  101 at Thu Feb  7 13:16:12 2019, MaxMem=   104857600 cpu:               5.8 elap:               0.3
 (Enter /home/xinyan/g16/l103.exe)

 GradGradGradGradGradGradGradGradGradGradGradGradGradGradGradGradGradGrad
 Berny optimization.
 Initialization pass.
 Trust Radius=3.00D-01 FncErr=1.00D-07 GrdErr=1.00D-07 EigMax=2.50D+02 EigMin=1.00D-04
 Number of steps in this run=      2 maximum allowed number of steps=      2.
 GradGradGradGradGradGradGradGradGradGradGradGradGradGradGradGradGradGrad

 Leave Link  103 at Thu Feb  7 13:16:12 2019, MaxMem=   104857600 cpu:               1.6 elap:               0.1
 (Enter /home/xinyan/g16/l202.exe)
 Stoichiometry    C27H41N3O5S
 Framework group  C1[X(C27H41N3O5S)]
 Deg. of freedom   225
 Full point group                 C1      NOp   1
 Largest Abelian subgroup         C1      NOp   1
 Largest concise Abelian subgroup C1      NOp   1
                         Standard orientation:                         
 ---------------------------------------------------------------------
 Center     Atomic      Atomic             Coordinates (Angstroms)
 Number     Number       Type             X           Y           Z
 ---------------------------------------------------------------------
      1          6           0       -4.807659    0.462981   -0.519802
      2          6           0       -5.012312   -0.846494   -1.287614
      3          6           0       -3.693864   -1.329607   -1.904006
      4          6           0       -2.671138   -1.516009   -0.789064
      5          6           0       -2.425154   -0.184816   -0.034601
      6          6           0       -3.739682    0.320649    0.569659
      7          1           0       -3.829165   -2.267171   -2.453696
      8          1           0       -5.396351   -1.617509   -0.606782
      9          1           0       -5.760067   -0.715232   -2.076041
     10          1           0       -4.498258    1.246358   -1.224356
     11          1           0       -5.753009    0.787363   -0.072836
     12          1           0       -3.045132   -2.256697   -0.075453
     13          1           0       -2.106275    0.551482   -0.783427
     14          1           0       -4.082746   -0.375939    1.341689
     15          1           0       -3.546154    1.288649    1.044353
     16          1           0       -3.347274   -0.568919   -2.616506
     17          7           0       -1.355337   -2.015466   -1.239845
     18          6           0       -0.674857   -1.352694   -2.213329
     19          6           0       -0.656012   -2.802257   -0.379282
     20          6           0        0.679071   -1.418754   -2.326808
     21          1           0       -1.270245   -0.734829   -2.874112
     22          6           0        0.699716   -2.906292   -0.419723
     23          1           0       -1.240584   -3.288413    0.394278
     24          6           0        1.439008   -2.113768   -1.338626
     25          1           0        1.165586   -0.862644   -3.116817
     26          1           0        1.189015   -3.492278    0.345200
     27          7           0        2.762669   -2.027418   -1.279729
     28          6           0        3.504096   -2.494167   -0.098432
     29          1           0        3.376931   -3.571842    0.036421
     30          1           0        3.125526   -1.948564    0.778370
     31          6           0        3.495511   -0.962976   -1.981586
     32          1           0        3.735003   -1.283435   -3.003047
     33          1           0        2.874577   -0.063270   -2.000190
     34          7           0       -1.301792   -0.264033    0.887032
     35         16           0       -1.336178   -1.089648    2.296032
     36          8           0       -2.560502   -1.895321    2.318287
     37          8           0       -0.058352   -1.784689    2.466523
     38          6           0       -0.556745    2.662068   -0.042595
     39          6           0       -0.083548    2.131207   -1.252923
     40          6           0       -0.856973    2.202172   -2.410352
     41          6           0       -2.119457    2.795071   -2.393141
     42          6           0       -2.601961    3.322179   -1.198134
     43          6           0       -1.823031    3.255179   -0.042631
     44          1           0        0.868614    1.611215   -1.251777
     45          1           0       -0.462715    1.795734   -3.339707
     46          1           0       -2.715524    2.852576   -3.299771
     47          1           0       -3.581843    3.790500   -1.163819
     48          1           0       -2.208881    3.678614    0.882710
     49          8           0        0.734489    1.537852    1.831618
     50          1           0       -0.331950   -0.031047    0.562823
     51          6           0        1.900805    0.811979    1.223193
     52          8           0        1.529861    0.198066    0.123442
     53          8           0        2.260023   -0.062475    2.277655
     54          1           0        1.564099   -0.744090    2.286240
     55          6           0        3.089890    1.801548    1.132209
     56          1           0        3.009372    2.519014    1.959952
     57          1           0        3.993718    1.214846    1.340933
     58          6           0        0.268242    2.721894    1.247747
     59          1           0       -0.376796    3.184542    2.006616
     60          1           0        1.098551    3.426541    1.089567
     61          6           0       -1.423938    0.147640    3.569046
     62          1           0       -0.537822    0.775857    3.441621
     63          1           0       -2.344234    0.717025    3.427743
     64          1           0       -1.427125   -0.367864    4.530892
     65          6           0        3.279393    2.539062   -0.190686
     66          1           0        3.446947    1.810333   -0.992602
     67          1           0        2.373607    3.083420   -0.477449
     68          6           0        4.450384    3.518206   -0.119609
     69          1           0        4.612415    4.032360   -1.071954
     70          1           0        4.269029    4.280674    0.646330
     71          1           0        5.378582    3.000994    0.149213
     72          6           0        4.940116   -2.098998   -0.422114
     73          1           0        5.555574   -2.027062    0.476329
     74          1           0        5.392162   -2.832909   -1.098602
     75          6           0        4.748249   -0.754309   -1.126077
     76          1           0        4.530028    0.011755   -0.377285
     77          1           0        5.609834   -0.439001   -1.718273
 ---------------------------------------------------------------------
 Rotational constants (GHZ):           0.1538838           0.1007248           0.0906975
 Leave Link  202 at Thu Feb  7 13:16:12 2019, MaxMem=   104857600 cpu:               2.4 elap:               0.1
 (Enter /home/xinyan/g16/l301.exe)
 Standard basis: 6-31G(d) (6D, 7F)
 Ernie: Thresh=  0.10000D-02 Tol=  0.10000D-05 Strict=F.
 There are   626 symmetry adapted cartesian basis functions of A   symmetry.
 There are   626 symmetry adapted basis functions of A   symmetry.
   626 basis functions,  1196 primitive gaussians,   626 cartesian basis functions
   140 alpha electrons      140 beta electrons
       nuclear repulsion energy      4987.6563651718 Hartrees.
 IExCor= 4336 DFT=T Ex+Corr=M062X ExCW=0 ScaHFX=  0.540000
 ScaDFX=  1.000000  1.000000  1.000000  1.000000 ScalE2=  1.000000  1.000000
 IRadAn=      5 IRanWt=     -1 IRanGd=            0 ICorTp=0 IEmpDi=131
 NAtoms=   77 NActive=   77 NUniq=   77 SFac= 1.00D+00 NAtFMM=   60 NAOKFM=T Big=T
 Integral buffers will be    131072 words long.
 Raffenetti 2 integral format.
 Two-electron integral symmetry is turned on.
 R6Disp:  Grimme-D3 Dispersion energy=       -0.0108128871 Hartrees.
 Nuclear repulsion after empirical dispersion term =     4987.6455522847 Hartrees.
 Leave Link  301 at Thu Feb  7 13:16:12 2019, MaxMem=   104857600 cpu:               3.0 elap:               0.2
 (Enter /home/xinyan/g16/l302.exe)
 NPDir=0 NMtPBC=     1 NCelOv=     1 NCel=       1 NClECP=     1 NCelD=      1
         NCelK=      1 NCelE2=     1 NClLst=     1 CellRange=     0.0.
 One-electron integrals computed using PRISM.
 One-electron integral symmetry used in STVInt
 PrsmSu:  requested number of processors reduced to:  23 ShMem   1 Linda.
 NBasis=   626 RedAO= T EigKep=  4.42D-04  NBF=   626
 NBsUse=   626 1.00D-06 EigRej= -1.00D+00 NBFU=   626
 Precomputing XC quadrature grid using
 IXCGrd= 4 IRadAn=           5 IRanWt=          -1 IRanGd=           0 AccXCQ= 0.00D+00.
 Generated NRdTot=       0 NPtTot=           0 NUsed=           0 NTot=          32
 NSgBfM=   621   621   621   621   621 MxSgAt=    77 MxSgA2=    77.
 Leave Link  302 at Thu Feb  7 13:16:16 2019, MaxMem=   104857600 cpu:              82.3 elap:               3.6
 (Enter /home/xinyan/g16/l303.exe)
 DipDrv:  MaxL=1.
 Leave Link  303 at Thu Feb  7 13:16:16 2019, MaxMem=   104857600 cpu:               4.2 elap:               0.2
 (Enter /home/xinyan/g16/l401.exe)
 ExpMin= 1.17D-01 ExpMax= 2.19D+04 ExpMxC= 3.30D+03 IAcc=3 IRadAn=         5 AccDes= 0.00D+00
 Harris functional with IExCor= 1009 and IRadAn=       5 diagonalized for initial guess.
 HarFok:  IExCor= 1009 AccDes= 0.00D+00 IRadAn=         5 IDoV= 1 UseB2=F ITyADJ=14
 ICtDFT=  3500011 ScaDFX=  1.000000  1.000000  1.000000  1.000000
 FoFCou: FMM=F IPFlag=           0 FMFlag=      100000 FMFlg1=        2001
         NFxFlg=           0 DoJE=T BraDBF=F KetDBF=T FulRan=T
         wScrn=  0.000000 ICntrl=       500 IOpCl=  0 I1Cent=   200000004 NGrid=           0
         NMat0=    1 NMatS0=      1 NMatT0=    0 NMatD0=    1 NMtDS0=    0 NMtDT0=    0
 Petite list used in FoFCou.
 Harris En= -1990.53032578827    
 JPrj=0 DoOrth=F DoCkMO=F.
 Leave Link  401 at Thu Feb  7 13:16:20 2019, MaxMem=   104857600 cpu:              99.9 elap:               4.2
 (Enter /home/xinyan/g16/l502.exe)
 Integral symmetry usage will be decided dynamically.
 Closed shell SCF:
 Using DIIS extrapolation, IDIIS=  1040.
 NGot=   104857600 LenX=   104051656 LenY=   103659154
 Requested convergence on RMS density matrix=1.00D-08 within 128 cycles.
 Requested convergence on MAX density matrix=1.00D-06.
 Requested convergence on             energy=1.00D-06.
 No special actions if energy rises.
 Fock matrices will be formed incrementally for  20 cycles.
 Integral accuracy reduced to 1.0D-05 until final iterations.

 Cycle   1  Pass 0  IDiag  1:
 FoFJK:  IHMeth= 1 ICntrl=       0 DoSepK=F KAlg= 0 I1Cent=           0 FoldK=F
 IRaf= 990000000 NMat=       1 IRICut=       1 DoRegI=T DoRafI=F ISym2E= 0 IDoP0=0 IntGTp=1.
 FoFCou: FMM=T IPFlag=           0 FMFlag=      100000 FMFlg1=        2001
         NFxFlg=           0 DoJE=F BraDBF=F KetDBF=F FulRan=T
         wScrn=  0.000000 ICntrl=         0 IOpCl=  0 I1Cent=           0 NGrid=           0
         NMat0=    1 NMatS0=      1 NMatT0=    0 NMatD0=    1 NMtDS0=    0 NMtDT0=    0
 Symmetry not used in FoFCou.
 FMM levels:  10  Number of levels for PrismC:   9
 E= -1990.29594287710    
 DIIS: error= 2.38D-02 at cycle   1 NSaved=   1.
 NSaved= 1 IEnMin= 1 EnMin= -1990.29594287710     IErMin= 1 ErrMin= 2.38D-02
 ErrMax= 2.38D-02  0.00D+00 EMaxC= 1.00D-01 BMatC= 1.25D+00 BMatP= 1.25D+00
 IDIUse=3 WtCom= 7.62D-01 WtEn= 2.38D-01
 Coeff-Com:  0.100D+01
 Coeff-En:   0.100D+01
 Coeff:      0.100D+01
 Gap=     0.367 Goal=   None    Shift=    0.000
 GapD=    0.367 DampG=1.000 DampE=0.500 DampFc=0.5000 IDamp=-1.
 Damping current iteration by 5.00D-01
 RMSDP=3.46D-03 MaxDP=3.47D-01              OVMax= 2.00D-01

 Cycle   2  Pass 0  IDiag  1:
 RMSU=  1.72D-03    CP:  9.88D-01
 E= -1990.80926196975     Delta-E=       -0.513319092648 Rises=F Damp=T
 DIIS: error= 6.94D-03 at cycle   2 NSaved=   2.
 NSaved= 2 IEnMin= 2 EnMin= -1990.80926196975     IErMin= 2 ErrMin= 6.94D-03
 ErrMax= 6.94D-03  0.00D+00 EMaxC= 1.00D-01 BMatC= 9.32D-02 BMatP= 1.25D+00
 IDIUse=3 WtCom= 9.31D-01 WtEn= 6.94D-02
 Coeff-Com: -0.272D-01 0.103D+01
 Coeff-En:   0.000D+00 0.100D+01
 Coeff:     -0.253D-01 0.103D+01
 Gap=     0.260 Goal=   None    Shift=    0.000
 RMSDP=8.62D-04 MaxDP=7.78D-02 DE=-5.13D-01 OVMax= 1.15D-01

 Cycle   3  Pass 0  IDiag  1:
 RMSU=  8.51D-04    CP:  9.81D-01  9.41D-01
 E= -1991.31596457014     Delta-E=       -0.506702600398 Rises=F Damp=F
 DIIS: error= 7.17D-03 at cycle   3 NSaved=   3.
 NSaved= 3 IEnMin= 3 EnMin= -1991.31596457014     IErMin= 2 ErrMin= 6.94D-03
 ErrMax= 7.17D-03  0.00D+00 EMaxC= 1.00D-01 BMatC= 5.04D-02 BMatP= 9.32D-02
 IDIUse=3 WtCom= 9.28D-01 WtEn= 7.17D-02
 Coeff-Com: -0.709D-01 0.442D+00 0.629D+00
 Coeff-En:   0.000D+00 0.000D+00 0.100D+01
 Coeff:     -0.658D-01 0.411D+00 0.655D+00
 Gap=     0.243 Goal=   None    Shift=    0.000
 RMSDP=5.17D-04 MaxDP=3.67D-02 DE=-5.07D-01 OVMax= 6.13D-02

 Cycle   4  Pass 0  IDiag  1:
 RMSU=  3.40D-04    CP:  9.84D-01  1.05D+00  6.00D-01
 E= -1991.34689254351     Delta-E=       -0.030927973370 Rises=F Damp=F
 DIIS: error= 3.92D-03 at cycle   4 NSaved=   4.
 NSaved= 4 IEnMin= 4 EnMin= -1991.34689254351     IErMin= 4 ErrMin= 3.92D-03
 ErrMax= 3.92D-03  0.00D+00 EMaxC= 1.00D-01 BMatC= 1.24D-02 BMatP= 5.04D-02
 IDIUse=3 WtCom= 9.61D-01 WtEn= 3.92D-02
 Coeff-Com: -0.282D-01 0.910D-01 0.359D+00 0.578D+00
 Coeff-En:   0.000D+00 0.000D+00 0.208D+00 0.792D+00
 Coeff:     -0.271D-01 0.874D-01 0.353D+00 0.587D+00
 Gap=     0.226 Goal=   None    Shift=    0.000
 RMSDP=2.07D-04 MaxDP=1.38D-02 DE=-3.09D-02 OVMax= 2.82D-02

 Cycle   5  Pass 0  IDiag  1:
 RMSU=  8.63D-05    CP:  9.84D-01  1.03D+00  7.32D-01  5.62D-01
 E= -1991.35718027322     Delta-E=       -0.010287729707 Rises=F Damp=F
 DIIS: error= 9.99D-04 at cycle   5 NSaved=   5.
 NSaved= 5 IEnMin= 5 EnMin= -1991.35718027322     IErMin= 5 ErrMin= 9.99D-04
 ErrMax= 9.99D-04  0.00D+00 EMaxC= 1.00D-01 BMatC= 5.88D-04 BMatP= 1.24D-02
 IDIUse=3 WtCom= 9.90D-01 WtEn= 9.99D-03
 Coeff-Com: -0.924D-02 0.212D-01 0.135D+00 0.285D+00 0.568D+00
 Coeff-En:   0.000D+00 0.000D+00 0.000D+00 0.000D+00 0.100D+01
 Coeff:     -0.915D-02 0.210D-01 0.133D+00 0.282D+00 0.573D+00
 Gap=     0.227 Goal=   None    Shift=    0.000
 RMSDP=5.10D-05 MaxDP=3.76D-03 DE=-1.03D-02 OVMax= 8.90D-03

 Cycle   6  Pass 0  IDiag  1:
 RMSU=  2.73D-05    CP:  9.83D-01  1.03D+00  7.30D-01  6.34D-01  5.93D-01
 E= -1991.35769056900     Delta-E=       -0.000510295783 Rises=F Damp=F
 DIIS: error= 3.27D-04 at cycle   6 NSaved=   6.
 NSaved= 6 IEnMin= 6 EnMin= -1991.35769056900     IErMin= 6 ErrMin= 3.27D-04
 ErrMax= 3.27D-04  0.00D+00 EMaxC= 1.00D-01 BMatC= 5.92D-05 BMatP= 5.88D-04
 IDIUse=3 WtCom= 9.97D-01 WtEn= 3.27D-03
 Coeff-Com: -0.178D-02 0.178D-02 0.302D-01 0.821D-01 0.294D+00 0.594D+00
 Coeff-En:   0.000D+00 0.000D+00 0.000D+00 0.000D+00 0.367D-02 0.996D+00
 Coeff:     -0.178D-02 0.178D-02 0.301D-01 0.819D-01 0.293D+00 0.595D+00
 Gap=     0.227 Goal=   None    Shift=    0.000
 RMSDP=1.50D-05 MaxDP=8.85D-04 DE=-5.10D-04 OVMax= 2.39D-03

 Cycle   7  Pass 0  IDiag  1:
 RMSU=  9.40D-06    CP:  9.83D-01  1.03D+00  7.33D-01  6.34D-01  6.77D-01
                    CP:  6.77D-01
 E= -1991.35774661511     Delta-E=       -0.000056046103 Rises=F Damp=F
 DIIS: error= 5.27D-05 at cycle   7 NSaved=   7.
 NSaved= 7 IEnMin= 7 EnMin= -1991.35774661511     IErMin= 7 ErrMin= 5.27D-05
 ErrMax= 5.27D-05  0.00D+00 EMaxC= 1.00D-01 BMatC= 3.88D-06 BMatP= 5.92D-05
 IDIUse=1 WtCom= 1.00D+00 WtEn= 0.00D+00
 Coeff-Com:  0.176D-03-0.135D-02-0.133D-02 0.573D-02 0.716D-01 0.254D+00
 Coeff-Com:  0.671D+00
 Coeff:      0.176D-03-0.135D-02-0.133D-02 0.573D-02 0.716D-01 0.254D+00
 Coeff:      0.671D+00
 Gap=     0.227 Goal=   None    Shift=    0.000
 RMSDP=4.45D-06 MaxDP=2.40D-04 DE=-5.60D-05 OVMax= 5.21D-04

 Initial convergence to 1.0D-05 achieved.  Increase integral accuracy.
 Cycle   8  Pass 1  IDiag  1:
 E= -1991.35775639049     Delta-E=       -0.000009775387 Rises=F Damp=F
 DIIS: error= 2.00D-04 at cycle   1 NSaved=   1.
 NSaved= 1 IEnMin= 1 EnMin= -1991.35775639049     IErMin= 1 ErrMin= 2.00D-04
 ErrMax= 2.00D-04  0.00D+00 EMaxC= 1.00D-01 BMatC= 1.34D-05 BMatP= 1.34D-05
 IDIUse=3 WtCom= 9.98D-01 WtEn= 2.00D-03
 Coeff-Com:  0.100D+01
 Coeff-En:   0.100D+01
 Coeff:      0.100D+01
 Gap=     0.227 Goal=   None    Shift=    0.000
 RMSDP=4.45D-06 MaxDP=2.40D-04 DE=-9.78D-06 OVMax= 4.74D-04

 Cycle   9  Pass 1  IDiag  1:
 RMSU=  7.31D-05    CP:  1.00D+00
 E= -1991.35776841633     Delta-E=       -0.000012025840 Rises=F Damp=F
 DIIS: error= 2.16D-05 at cycle   2 NSaved=   2.
 NSaved= 2 IEnMin= 2 EnMin= -1991.35776841633     IErMin= 2 ErrMin= 2.16D-05
 ErrMax= 2.16D-05  0.00D+00 EMaxC= 1.00D-01 BMatC= 7.65D-07 BMatP= 1.34D-05
 IDIUse=1 WtCom= 1.00D+00 WtEn= 0.00D+00
 Coeff-Com:  0.665D-01 0.933D+00
 Coeff:      0.665D-01 0.933D+00
 Gap=     0.227 Goal=   None    Shift=    0.000
 RMSDP=3.83D-06 MaxDP=2.08D-04 DE=-1.20D-05 OVMax= 3.60D-04

 Cycle  10  Pass 1  IDiag  1:
 RMSU=  3.21D-06    CP:  1.00D+00  1.03D+00
 E= -1991.35776807705     Delta-E=        0.000000339287 Rises=F Damp=F
 DIIS: error= 3.60D-05 at cycle   3 NSaved=   3.
 NSaved= 3 IEnMin= 2 EnMin= -1991.35776841633     IErMin= 2 ErrMin= 2.16D-05
 ErrMax= 3.60D-05  0.00D+00 EMaxC= 1.00D-01 BMatC= 1.20D-06 BMatP= 7.65D-07
 IDIUse=1 WtCom= 1.00D+00 WtEn= 0.00D+00
 Coeff-Com: -0.145D-01 0.561D+00 0.453D+00
 Coeff:     -0.145D-01 0.561D+00 0.453D+00
 Gap=     0.227 Goal=   None    Shift=    0.000
 RMSDP=1.80D-06 MaxDP=1.25D-04 DE= 3.39D-07 OVMax= 2.29D-04

 Cycle  11  Pass 1  IDiag  1:
 RMSU=  6.31D-07    CP:  1.00D+00  1.03D+00  4.82D-01
 E= -1991.35776908671     Delta-E=       -0.000001009662 Rises=F Damp=F
 DIIS: error= 4.27D-06 at cycle   4 NSaved=   4.
 NSaved= 4 IEnMin= 4 EnMin= -1991.35776908671     IErMin= 4 ErrMin= 4.27D-06
 ErrMax= 4.27D-06  0.00D+00 EMaxC= 1.00D-01 BMatC= 1.19D-08 BMatP= 7.65D-07
 IDIUse=1 WtCom= 1.00D+00 WtEn= 0.00D+00
 Coeff-Com: -0.817D-02 0.260D+00 0.221D+00 0.527D+00
 Coeff:     -0.817D-02 0.260D+00 0.221D+00 0.527D+00
 Gap=     0.227 Goal=   None    Shift=    0.000
 RMSDP=2.24D-07 MaxDP=1.26D-05 DE=-1.01D-06 OVMax= 3.63D-05

 Cycle  12  Pass 1  IDiag  1:
 RMSU=  1.97D-07    CP:  1.00D+00  1.03D+00  5.01D-01  8.65D-01
 E= -1991.35776909786     Delta-E=       -0.000000011152 Rises=F Damp=F
 DIIS: error= 1.44D-06 at cycle   5 NSaved=   5.
 NSaved= 5 IEnMin= 5 EnMin= -1991.35776909786     IErMin= 5 ErrMin= 1.44D-06
 ErrMax= 1.44D-06  0.00D+00 EMaxC= 1.00D-01 BMatC= 9.32D-10 BMatP= 1.19D-08
 IDIUse=1 WtCom= 1.00D+00 WtEn= 0.00D+00
 Coeff-Com: -0.104D-02 0.191D-01 0.182D-01 0.209D+00 0.755D+00
 Coeff:     -0.104D-02 0.191D-01 0.182D-01 0.209D+00 0.755D+00
 Gap=     0.227 Goal=   None    Shift=    0.000
 RMSDP=8.33D-08 MaxDP=4.71D-06 DE=-1.12D-08 OVMax= 1.03D-05

 Cycle  13  Pass 1  IDiag  1:
 RMSU=  6.29D-08    CP:  1.00D+00  1.03D+00  5.02D-01  9.39D-01  8.76D-01
 E= -1991.35776909868     Delta-E=       -0.000000000819 Rises=F Damp=F
 DIIS: error= 4.59D-07 at cycle   6 NSaved=   6.
 NSaved= 6 IEnMin= 6 EnMin= -1991.35776909868     IErMin= 6 ErrMin= 4.59D-07
 ErrMax= 4.59D-07  0.00D+00 EMaxC= 1.00D-01 BMatC= 2.37D-10 BMatP= 9.32D-10
 IDIUse=1 WtCom= 1.00D+00 WtEn= 0.00D+00
 Coeff-Com:  0.738D-03-0.310D-01-0.257D-01 0.363D-01 0.411D+00 0.608D+00
 Coeff:      0.738D-03-0.310D-01-0.257D-01 0.363D-01 0.411D+00 0.608D+00
 Gap=     0.227 Goal=   None    Shift=    0.000
 RMSDP=3.50D-08 MaxDP=1.68D-06 DE=-8.19D-10 OVMax= 4.83D-06

 Cycle  14  Pass 1  IDiag  1:
 RMSU=  2.48D-08    CP:  1.00D+00  1.03D+00  5.02D-01  9.58D-01  9.56D-01
                    CP:  7.75D-01
 E= -1991.35776909894     Delta-E=       -0.000000000264 Rises=F Damp=F
 DIIS: error= 1.36D-07 at cycle   7 NSaved=   7.
 NSaved= 7 IEnMin= 7 EnMin= -1991.35776909894     IErMin= 7 ErrMin= 1.36D-07
 ErrMax= 1.36D-07  0.00D+00 EMaxC= 1.00D-01 BMatC= 1.56D-11 BMatP= 2.37D-10
 IDIUse=1 WtCom= 1.00D+00 WtEn= 0.00D+00
 Coeff-Com:  0.404D-03-0.150D-01-0.128D-01 0.104D-02 0.118D+00 0.271D+00
 Coeff-Com:  0.638D+00
 Coeff:      0.404D-03-0.150D-01-0.128D-01 0.104D-02 0.118D+00 0.271D+00
 Coeff:      0.638D+00
 Gap=     0.227 Goal=   None    Shift=    0.000
 RMSDP=9.23D-09 MaxDP=5.40D-07 DE=-2.64D-10 OVMax= 1.53D-06

 SCF Done:  E(RM062X) =  -1991.35776910     A.U. after   14 cycles
            NFock= 14  Conv=0.92D-08     -V/T= 2.0076
 KE= 1.976414904539D+03 PE=-1.462757463671D+04 EE= 5.672156410792D+03
 Leave Link  502 at Thu Feb  7 13:18:49 2019, MaxMem=   104857600 cpu:            3565.3 elap:             148.8
 (Enter /home/xinyan/g16/l601.exe)
 Copying SCF densities to generalized density rwf, IOpCl= 0 IROHF=0.

 **********************************************************************

            Population analysis using the SCF density.

 **********************************************************************

 Orbital symmetries:
       Occupied  (A) (A) (A) (A) (A) (A) (A) (A) (A) (A) (A) (A)
                 (A) (A) (A) (A) (A) (A) (A) (A) (A) (A) (A) (A)
                 (A) (A) (A) (A) (A) (A) (A) (A) (A) (A) (A) (A)
                 (A) (A) (A) (A) (A) (A) (A) (A) (A) (A) (A) (A)
                 (A) (A) (A) (A) (A) (A) (A) (A) (A) (A) (A) (A)
                 (A) (A) (A) (A) (A) (A) (A) (A) (A) (A) (A) (A)
                 (A) (A) (A) (A) (A) (A) (A) (A) (A) (A) (A) (A)
                 (A) (A) (A) (A) (A) (A) (A) (A) (A) (A) (A) (A)
                 (A) (A) (A) (A) (A) (A) (A) (A) (A) (A) (A) (A)
                 (A) (A) (A) (A) (A) (A) (A) (A) (A) (A) (A) (A)
                 (A) (A) (A) (A) (A) (A) (A) (A) (A) (A) (A) (A)
                 (A) (A) (A) (A) (A) (A) (A) (A)
       Virtual   (A) (A) (A) (A) (A) (A) (A) (A) (A) (A) (A) (A)
                 (A) (A) (A) (A) (A) (A) (A) (A) (A) (A) (A) (A)
                 (A) (A) (A) (A) (A) (A) (A) (A) (A) (A) (A) (A)
                 (A) (A) (A) (A) (A) (A) (A) (A) (A) (A) (A) (A)
                 (A) (A) (A) (A) (A) (A) (A) (A) (A) (A) (A) (A)
                 (A) (A) (A) (A) (A) (A) (A) (A) (A) (A) (A) (A)
                 (A) (A) (A) (A) (A) (A) (A) (A) (A) (A) (A) (A)
                 (A) (A) (A) (A) (A) (A) (A) (A) (A) (A) (A) (A)
                 (A) (A) (A) (A) (A) (A) (A) (A) (A) (A) (A) (A)
                 (A) (A) (A) (A) (A) (A) (A) (A) (A) (A) (A) (A)
                 (A) (A) (A) (A) (A) (A) (A) (A) (A) (A) (A) (A)
                 (A) (A) (A) (A) (A) (A) (A) (A) (A) (A) (A) (A)
                 (A) (A) (A) (A) (A) (A) (A) (A) (A) (A) (A) (A)
                 (A) (A) (A) (A) (A) (A) (A) (A) (A) (A) (A) (A)
                 (A) (A) (A) (A) (A) (A) (A) (A) (A) (A) (A) (A)
                 (A) (A) (A) (A) (A) (A) (A) (A) (A) (A) (A) (A)
                 (A) (A) (A) (A) (A) (A) (A) (A) (A) (A) (A) (A)
                 (A) (A) (A) (A) (A) (A) (A) (A) (A) (A) (A) (A)
                 (A) (A) (A) (A) (A) (A) (A) (A) (A) (A) (A) (A)
                 (A) (A) (A) (A) (A) (A) (A) (A) (A) (A) (A) (A)
                 (A) (A) (A) (A) (A) (A) (A) (A) (A) (A) (A) (A)
                 (A) (A) (A) (A) (A) (A) (A) (A) (A) (A) (A) (A)
                 (A) (A) (A) (A) (A) (A) (A) (A) (A) (A) (A) (A)
                 (A) (A) (A) (A) (A) (A) (A) (A) (A) (A) (A) (A)
                 (A) (A) (A) (A) (A) (A) (A) (A) (A) (A) (A) (A)
                 (A) (A) (A) (A) (A) (A) (A) (A) (A) (A) (A) (A)
                 (A) (A) (A) (A) (A) (A) (A) (A) (A) (A) (A) (A)
                 (A) (A) (A) (A) (A) (A) (A) (A) (A) (A) (A) (A)
                 (A) (A) (A) (A) (A) (A) (A) (A) (A) (A) (A) (A)
                 (A) (A) (A) (A) (A) (A) (A) (A) (A) (A) (A) (A)
                 (A) (A) (A) (A) (A) (A) (A) (A) (A) (A) (A) (A)
                 (A) (A) (A) (A) (A) (A) (A) (A) (A) (A) (A) (A)
                 (A) (A) (A) (A) (A) (A) (A) (A) (A) (A) (A) (A)
                 (A) (A) (A) (A) (A) (A) (A) (A) (A) (A) (A) (A)
                 (A) (A) (A) (A) (A) (A) (A) (A) (A) (A) (A) (A)
                 (A) (A) (A) (A) (A) (A) (A) (A) (A) (A) (A) (A)
                 (A) (A) (A) (A) (A) (A) (A) (A) (A) (A) (A) (A)
                 (A) (A) (A) (A) (A) (A) (A) (A) (A) (A) (A) (A)
                 (A) (A) (A) (A) (A) (A) (A) (A) (A) (A) (A) (A)
                 (A) (A) (A) (A) (A) (A) (A) (A) (A) (A) (A) (A)
                 (A) (A) (A) (A) (A) (A)
 The electronic state is 1-A.
 Alpha  occ. eigenvalues --  -90.14358 -19.61946 -19.61900 -19.58580 -19.56643
 Alpha  occ. eigenvalues --  -19.50996 -14.85235 -14.80395 -14.76156 -10.63404
 Alpha  occ. eigenvalues --  -10.62787 -10.62253 -10.62106 -10.60840 -10.59514
 Alpha  occ. eigenvalues --  -10.58298 -10.57992 -10.57954 -10.57186 -10.56899
 Alpha  occ. eigenvalues --  -10.56758 -10.55727 -10.55696 -10.55053 -10.54887
 Alpha  occ. eigenvalues --  -10.54874 -10.54763 -10.54694 -10.54611 -10.54423
 Alpha  occ. eigenvalues --  -10.54421 -10.54348 -10.53022 -10.51374 -10.51336
 Alpha  occ. eigenvalues --  -10.49576  -8.45335  -6.37554  -6.37527  -6.37369
 Alpha  occ. eigenvalues --   -1.22171  -1.13617  -1.13368  -1.10424  -1.09299
 Alpha  occ. eigenvalues --   -1.05800  -1.01954  -0.99219  -0.95811  -0.95008
 Alpha  occ. eigenvalues --   -0.93539  -0.90323  -0.88760  -0.86050  -0.85637
 Alpha  occ. eigenvalues --   -0.84835  -0.84757  -0.84152  -0.83069  -0.82804
 Alpha  occ. eigenvalues --   -0.76692  -0.76153  -0.75810  -0.74297  -0.72915
 Alpha  occ. eigenvalues --   -0.71722  -0.68318  -0.68183  -0.67932  -0.67305
 Alpha  occ. eigenvalues --   -0.66696  -0.65283  -0.64853  -0.63532  -0.60521
 Alpha  occ. eigenvalues --   -0.60397  -0.59738  -0.59254  -0.57782  -0.57656
 Alpha  occ. eigenvalues --   -0.57240  -0.56464  -0.55814  -0.55156  -0.54230
 Alpha  occ. eigenvalues --   -0.53595  -0.52724  -0.52543  -0.52504  -0.51928
 Alpha  occ. eigenvalues --   -0.51571  -0.50965  -0.50588  -0.49912  -0.49467
 Alpha  occ. eigenvalues --   -0.49155  -0.48900  -0.48213  -0.48129  -0.47930
 Alpha  occ. eigenvalues --   -0.47732  -0.47509  -0.46974  -0.46366  -0.46083
 Alpha  occ. eigenvalues --   -0.44943  -0.44735  -0.44208  -0.43831  -0.43275
 Alpha  occ. eigenvalues --   -0.42572  -0.42172  -0.41325  -0.41236  -0.41036
 Alpha  occ. eigenvalues --   -0.40886  -0.40537  -0.39987  -0.39765  -0.39243
 Alpha  occ. eigenvalues --   -0.39225  -0.39099  -0.38411  -0.38073  -0.37676
 Alpha  occ. eigenvalues --   -0.37357  -0.36725  -0.36501  -0.35845  -0.34932
 Alpha  occ. eigenvalues --   -0.34402  -0.34046  -0.31703  -0.31196  -0.29791
 Alpha  occ. eigenvalues --   -0.28867  -0.28604  -0.27696  -0.24579  -0.24216
 Alpha virt. eigenvalues --   -0.01508   0.00380   0.03514   0.03725   0.10119
 Alpha virt. eigenvalues --    0.10872   0.11582   0.12292   0.13142   0.13420
 Alpha virt. eigenvalues --    0.14223   0.14443   0.14745   0.15248   0.15592
 Alpha virt. eigenvalues --    0.16076   0.16744   0.16920   0.17159   0.17734
 Alpha virt. eigenvalues --    0.18015   0.18294   0.18405   0.18749   0.18983
 Alpha virt. eigenvalues --    0.19254   0.19695   0.20001   0.20107   0.20237
 Alpha virt. eigenvalues --    0.20634   0.20916   0.21133   0.21462   0.21581
 Alpha virt. eigenvalues --    0.22075   0.22518   0.22807   0.23210   0.23731
 Alpha virt. eigenvalues --    0.23870   0.24211   0.24611   0.24685   0.24820
 Alpha virt. eigenvalues --    0.25264   0.25447   0.25875   0.26274   0.26793
 Alpha virt. eigenvalues --    0.27086   0.27738   0.27869   0.28496   0.28924
 Alpha virt. eigenvalues --    0.29195   0.29349   0.29680   0.30737   0.30870
 Alpha virt. eigenvalues --    0.31247   0.31557   0.31941   0.32427   0.33046
 Alpha virt. eigenvalues --    0.33568   0.34469   0.35351   0.35471   0.35832
 Alpha virt. eigenvalues --    0.36506   0.37469   0.37588   0.37951   0.38829
 Alpha virt. eigenvalues --    0.39929   0.40478   0.40678   0.42820   0.43153
 Alpha virt. eigenvalues --    0.44309   0.44645   0.47202   0.47978   0.48843
 Alpha virt. eigenvalues --    0.49641   0.51090   0.52664   0.53384   0.54887
 Alpha virt. eigenvalues --    0.55152   0.55357   0.56075   0.56697   0.56977
 Alpha virt. eigenvalues --    0.57457   0.58197   0.58570   0.59039   0.59510
 Alpha virt. eigenvalues --    0.59680   0.59829   0.60394   0.60497   0.60657
 Alpha virt. eigenvalues --    0.61102   0.61465   0.62366   0.62553   0.62872
 Alpha virt. eigenvalues --    0.63682   0.63991   0.64474   0.64881   0.65645
 Alpha virt. eigenvalues --    0.66016   0.66449   0.66969   0.67500   0.67921
 Alpha virt. eigenvalues --    0.68278   0.68966   0.69119   0.70003   0.70673
 Alpha virt. eigenvalues --    0.70949   0.71433   0.71783   0.72883   0.73394
 Alpha virt. eigenvalues --    0.73688   0.74309   0.74763   0.74863   0.75804
 Alpha virt. eigenvalues --    0.76547   0.77275   0.77845   0.78620   0.79077
 Alpha virt. eigenvalues --    0.79451   0.79971   0.80210   0.80760   0.81100
 Alpha virt. eigenvalues --    0.81803   0.82114   0.82781   0.84016   0.84682
 Alpha virt. eigenvalues --    0.84820   0.85376   0.85696   0.85991   0.86914
 Alpha virt. eigenvalues --    0.87799   0.88407   0.88989   0.89411   0.89575
 Alpha virt. eigenvalues --    0.89774   0.90106   0.90629   0.91165   0.91266
 Alpha virt. eigenvalues --    0.91550   0.92168   0.92734   0.92907   0.93254
 Alpha virt. eigenvalues --    0.93590   0.94090   0.94645   0.94979   0.95277
 Alpha virt. eigenvalues --    0.95745   0.96072   0.96681   0.96811   0.97003
 Alpha virt. eigenvalues --    0.97211   0.97804   0.98070   0.98363   0.98493
 Alpha virt. eigenvalues --    0.99165   0.99488   0.99785   1.00374   1.00918
 Alpha virt. eigenvalues --    1.01274   1.01810   1.02324   1.02663   1.03069
 Alpha virt. eigenvalues --    1.03166   1.04214   1.04406   1.04573   1.05805
 Alpha virt. eigenvalues --    1.06039   1.06952   1.07855   1.08232   1.09106
 Alpha virt. eigenvalues --    1.10154   1.10751   1.11397   1.11586   1.11900
 Alpha virt. eigenvalues --    1.13301   1.13551   1.14828   1.14910   1.15702
 Alpha virt. eigenvalues --    1.16606   1.17630   1.18326   1.18674   1.18982
 Alpha virt. eigenvalues --    1.19903   1.20415   1.20891   1.21582   1.21889
 Alpha virt. eigenvalues --    1.22182   1.23714   1.24093   1.25216   1.25465
 Alpha virt. eigenvalues --    1.26100   1.27295   1.28536   1.29269   1.30176
 Alpha virt. eigenvalues --    1.31160   1.31533   1.32081   1.32922   1.33444
 Alpha virt. eigenvalues --    1.33803   1.34523   1.35269   1.36250   1.36990
 Alpha virt. eigenvalues --    1.37086   1.38432   1.38892   1.40382   1.41177
 Alpha virt. eigenvalues --    1.41848   1.42495   1.43557   1.44458   1.46441
 Alpha virt. eigenvalues --    1.47266   1.47942   1.48363   1.49189   1.49928
 Alpha virt. eigenvalues --    1.51139   1.51804   1.52450   1.52806   1.54377
 Alpha virt. eigenvalues --    1.54928   1.55078   1.55950   1.57185   1.57236
 Alpha virt. eigenvalues --    1.57548   1.58307   1.60471   1.60876   1.61204
 Alpha virt. eigenvalues --    1.61926   1.62691   1.63397   1.65522   1.67344
 Alpha virt. eigenvalues --    1.69083   1.69616   1.70147   1.71848   1.72608
 Alpha virt. eigenvalues --    1.74103   1.74800   1.75931   1.77075   1.77727
 Alpha virt. eigenvalues --    1.78461   1.79804   1.80488   1.80999   1.82081
 Alpha virt. eigenvalues --    1.84109   1.84237   1.85255   1.85738   1.85773
 Alpha virt. eigenvalues --    1.86410   1.87117   1.87647   1.87887   1.88678
 Alpha virt. eigenvalues --    1.89760   1.90098   1.90350   1.90775   1.91879
 Alpha virt. eigenvalues --    1.92663   1.93744   1.94244   1.94703   1.94967
 Alpha virt. eigenvalues --    1.95320   1.95951   1.96576   1.97231   1.97605
 Alpha virt. eigenvalues --    1.98760   1.99127   1.99470   2.00010   2.00838
 Alpha virt. eigenvalues --    2.01778   2.02169   2.02457   2.02783   2.04211
 Alpha virt. eigenvalues --    2.04890   2.05973   2.06226   2.07157   2.07327
 Alpha virt. eigenvalues --    2.07610   2.07904   2.08723   2.09335   2.09651
 Alpha virt. eigenvalues --    2.09918   2.10638   2.11735   2.12003   2.12858
 Alpha virt. eigenvalues --    2.13012   2.14211   2.14494   2.15032   2.15758
 Alpha virt. eigenvalues --    2.15941   2.16455   2.17328   2.18812   2.19011
 Alpha virt. eigenvalues --    2.19826   2.20190   2.20660   2.21416   2.22264
 Alpha virt. eigenvalues --    2.23060   2.23338   2.23653   2.23780   2.24487
 Alpha virt. eigenvalues --    2.25302   2.25595   2.26146   2.27472   2.28212
 Alpha virt. eigenvalues --    2.29160   2.29692   2.30614   2.30765   2.31446
 Alpha virt. eigenvalues --    2.32063   2.33993   2.34608   2.35146   2.35542
 Alpha virt. eigenvalues --    2.35936   2.37320   2.37476   2.38459   2.38893
 Alpha virt. eigenvalues --    2.38941   2.40463   2.41051   2.41283   2.42548
 Alpha virt. eigenvalues --    2.43378   2.44382   2.45431   2.46161   2.47004
 Alpha virt. eigenvalues --    2.49265   2.50371   2.51803   2.52207   2.52588
 Alpha virt. eigenvalues --    2.54160   2.54329   2.55691   2.56888   2.59933
 Alpha virt. eigenvalues --    2.60919   2.61864   2.62238   2.63215   2.63522
 Alpha virt. eigenvalues --    2.64581   2.64739   2.65609   2.67124   2.68303
 Alpha virt. eigenvalues --    2.68892   2.69539   2.70126   2.71696   2.72723
 Alpha virt. eigenvalues --    2.73377   2.74464   2.76178   2.76626   2.77641
 Alpha virt. eigenvalues --    2.79498   2.80217   2.80550   2.80700   2.81606
 Alpha virt. eigenvalues --    2.83516   2.85396   2.86105   2.86944   2.88377
 Alpha virt. eigenvalues --    2.89334   2.91075   2.92616   2.93862   2.96903
 Alpha virt. eigenvalues --    2.99751   3.00410   3.03139   3.05342   3.10577
 Alpha virt. eigenvalues --    3.14785   3.16505   3.23902   3.41368   3.42741
 Alpha virt. eigenvalues --    3.95864   4.01735   4.04458   4.09287   4.10945
 Alpha virt. eigenvalues --    4.15575   4.16770   4.17623   4.18419   4.19582
 Alpha virt. eigenvalues --    4.20992   4.22954   4.24376   4.26290   4.27661
 Alpha virt. eigenvalues --    4.29465   4.32375   4.33015   4.34473   4.34995
 Alpha virt. eigenvalues --    4.40035   4.40435   4.41689   4.43704   4.46846
 Alpha virt. eigenvalues --    4.48804   4.55547   4.58144   4.59390   4.61201
 Alpha virt. eigenvalues --    4.63530   4.66191   4.73604   4.75623   4.76692
 Alpha virt. eigenvalues --    4.80040
          Condensed to atoms (all electrons):
 Mulliken charges:
               1
     1  C   -0.306310
     2  C   -0.307314
     3  C   -0.309259
     4  C   -0.059992
     5  C    0.055670
     6  C   -0.310726
     7  H    0.174415
     8  H    0.163033
     9  H    0.165909
    10  H    0.150675
    11  H    0.163980
    12  H    0.208662
    13  H    0.173953
    14  H    0.194404
    15  H    0.163388
    16  H    0.154842
    17  N   -0.431879
    18  C    0.068166
    19  C    0.065319
    20  C   -0.201768
    21  H    0.205950
    22  C   -0.210175
    23  H    0.244309
    24  C    0.446551
    25  H    0.192372
    26  H    0.211308
    27  N   -0.524863
    28  C   -0.169611
    29  H    0.169411
    30  H    0.227128
    31  C   -0.153728
    32  H    0.164122
    33  H    0.207155
    34  N   -0.811473
    35  S    1.250745
    36  O   -0.609313
    37  O   -0.603348
    38  C    0.079459
    39  C   -0.187618
    40  C   -0.190418
    41  C   -0.172057
    42  C   -0.164037
    43  C   -0.211222
    44  H    0.216886
    45  H    0.140296
    46  H    0.154962
    47  H    0.158549
    48  H    0.152315
    49  O   -0.554893
    50  H    0.445998
    51  C    0.721590
    52  O   -0.719357
    53  O   -0.716974
    54  H    0.441716
    55  C   -0.338044
    56  H    0.147397
    57  H    0.150841
    58  C   -0.088386
    59  H    0.138258
    60  H    0.148505
    61  C   -0.663758
    62  H    0.276049
    63  H    0.196804
    64  H    0.218195
    65  C   -0.290364
    66  H    0.133687
    67  H    0.145375
    68  C   -0.473319
    69  H    0.148529
    70  H    0.153124
    71  H    0.146494
    72  C   -0.332334
    73  H    0.186584
    74  H    0.162457
    75  C   -0.342413
    76  H    0.199014
    77  H    0.170405
 Sum of Mulliken charges =  -0.00000
 Mulliken charges with hydrogens summed into heavy atoms:
               1
     1  C    0.008346
     2  C    0.021628
     3  C    0.019998
     4  C    0.148671
     5  C    0.229622
     6  C    0.047065
    17  N   -0.431879
    18  C    0.274116
    19  C    0.309628
    20  C   -0.009396
    22  C    0.001133
    24  C    0.446551
    27  N   -0.524863
    28  C    0.226928
    31  C    0.217549
    34  N   -0.365475
    35  S    1.250745
    36  O   -0.609313
    37  O   -0.603348
    38  C    0.079459
    39  C    0.029268
    40  C   -0.050122
    41  C   -0.017096
    42  C   -0.005488
    43  C   -0.058907
    49  O   -0.554893
    51  C    0.721590
    52  O   -0.719357
    53  O   -0.275258
    55  C   -0.039806
    58  C    0.198377
    61  C    0.027291
    65  C   -0.011303
    68  C   -0.025173
    72  C    0.016708
    75  C    0.027005
 Electronic spatial extent (au):  <R**2>=          14367.3010
 Charge=             -0.0000 electrons
 Dipole moment (field-independent basis, Debye):
    X=             -2.8296    Y=             -2.0875    Z=             -6.2282  Tot=              7.1523
 Quadrupole moment (field-independent basis, Debye-Ang):
   XX=           -206.4187   YY=           -222.0558   ZZ=           -220.1750
   XY=            -12.6713   XZ=             -4.9196   YZ=             10.1921
 Traceless Quadrupole moment (field-independent basis, Debye-Ang):
   XX=              9.7978   YY=             -5.8393   ZZ=             -3.9585
   XY=            -12.6713   XZ=             -4.9196   YZ=             10.1921
 Octapole moment (field-independent basis, Debye-Ang**2):
  XXX=             11.4598  YYY=            -53.2482  ZZZ=             12.2329  XYY=              7.5670
  XXY=            -26.2408  XXZ=            -40.3135  XZZ=            -22.8640  YZZ=             13.3997
  YYZ=             19.9041  XYZ=            -19.1848
 Hexadecapole moment (field-independent basis, Debye-Ang**3):
 XXXX=          -9843.9819 YYYY=          -5437.2447 ZZZZ=          -3564.6758 XXXY=           -204.5852
 XXXZ=             -7.5203 YYYX=            -80.2182 YYYZ=             49.1352 ZZZX=           -100.7371
 ZZZY=              4.1676 XXYY=          -2557.4858 XXZZ=          -2330.6897 YYZZ=          -1606.4201
 XXYZ=             46.1881 YYXZ=             47.0200 ZZXY=            -56.0605
 N-N= 4.987645552285D+03 E-N=-1.462757468009D+04  KE= 1.976414904539D+03
 No NMR shielding tensors so no spin-rotation constants.
 Leave Link  601 at Thu Feb  7 13:18:51 2019, MaxMem=   104857600 cpu:              37.9 elap:               1.7
 (Enter /home/xinyan/g16/l701.exe)
 ... and contract with generalized density number  0.
 Compute integral first derivatives.
 R6Disp: Adding Grimme-D3 dispersion energy 1st derivatives to the gradient.
 Leave Link  701 at Thu Feb  7 13:18:52 2019, MaxMem=   104857600 cpu:              22.5 elap:               1.0
 (Enter /home/xinyan/g16/l702.exe)
 L702 exits ... SP integral derivatives will be done elsewhere.
 Leave Link  702 at Thu Feb  7 13:18:52 2019, MaxMem=   104857600 cpu:               1.4 elap:               0.1
 (Enter /home/xinyan/g16/l703.exe)
 Integral derivatives from FoFJK, PRISM(SPDF).
 Compute integral first derivatives, UseDBF=F ICtDFT=           0.
 Calling FoFJK, ICntrl=      2127 FMM=T ISym2X=0 I1Cent= 0 IOpClX= 0 NMat=1 NMatS=1 NMatT=0.
 FoFJK:  IHMeth= 1 ICntrl=    2127 DoSepK=F KAlg= 0 I1Cent=           0 FoldK=F
 IRaf=         0 NMat=       1 IRICut=       1 DoRegI=T DoRafI=F ISym2E= 0 IDoP0=0 IntGTp=1.
 FoFCou: FMM=T IPFlag=           0 FMFlag=      100000 FMFlg1=        2001
         NFxFlg=           0 DoJE=F BraDBF=F KetDBF=F FulRan=T
         wScrn=  0.000000 ICntrl=      2127 IOpCl=  0 I1Cent=           0 NGrid=           0
         NMat0=    1 NMatS0=      1 NMatT0=    0 NMatD0=    1 NMtDS0=    0 NMtDT0=    0
 Symmetry not used in FoFCou.
 FMM levels:  10  Number of levels for PrismC:   9
 Leave Link  703 at Thu Feb  7 13:19:26 2019, MaxMem=   104857600 cpu:             819.7 elap:              34.3
 (Enter /home/xinyan/g16/l716.exe)
 Dipole        =-1.11323914D+00-8.21291341D-01-2.45036626D+00
 ***** Axes restored to original set *****
 -------------------------------------------------------------------
 Center     Atomic                   Forces (Hartrees/Bohr)
 Number     Number              X              Y              Z
 -------------------------------------------------------------------
      1        6           0.000047569    0.000000175   -0.000010273
      2        6           0.000030158    0.000022663    0.000028618
      3        6           0.000029304    0.000003963    0.000002873
      4        6           0.000036892    0.000018453   -0.000032629
      5        6           0.000057623   -0.000020810   -0.000088532
      6        6           0.000042695    0.000007117    0.000013538
      7        1          -0.000004244    0.000009561   -0.000020497
      8        1           0.000021416    0.000021481   -0.000005451
      9        1           0.000023312    0.000033830    0.000010682
     10        1           0.000044809    0.000021395   -0.000008850
     11        1           0.000050926    0.000020142    0.000015755
     12        1           0.000021865   -0.000065571    0.000053602
     13        1           0.000049364   -0.000060550   -0.000002686
     14        1           0.000050676    0.000007686   -0.000013428
     15        1           0.000078204   -0.000009953   -0.000005476
     16        1           0.000004333    0.000004868   -0.000036144
     17        7           0.000006521   -0.000008867   -0.000018221
     18        6           0.000012119   -0.000014764   -0.000025369
     19        6           0.000008944   -0.000011662    0.000001183
     20        6           0.000012945   -0.000003157   -0.000005300
     21        1           0.000023320   -0.000027137   -0.000028469
     22        6           0.000022043   -0.000007478    0.000017769
     23        1          -0.000001856   -0.000037779   -0.000051599
     24        6          -0.000002233   -0.000034222    0.000025638
     25        1           0.000037616    0.000010040    0.000009757
     26        1           0.000014550   -0.000005471    0.000003222
     27        7           0.000015659    0.000061824    0.000018399
     28        6           0.000003592    0.000034341    0.000071037
     29        1           0.000001485    0.000032994    0.000065766
     30        1          -0.000008723    0.000057701    0.000052821
     31        6          -0.000002845    0.000027634    0.000029740
     32        1          -0.000001697    0.000037490    0.000047697
     33        1          -0.000002304    0.000027275    0.000082282
     34        7           0.000056483   -0.000023581   -0.000063473
     35       16           0.000106221   -0.000052576   -0.000004928
     36        8           0.000009006   -0.000062027   -0.000110910
     37        8          -0.000006670   -0.000049186   -0.000051852
     38        6          -0.000022050    0.000069313    0.000031660
     39        6          -0.000020275    0.000095593    0.000015835
     40        6          -0.000065016    0.000079415    0.000028153
     41        6          -0.000040958    0.000048478    0.000034649
     42        6          -0.000050685    0.000009892    0.000093501
     43        6          -0.000035135    0.000039334    0.000052870
     44        1           0.000000821    0.000041377    0.000001348
     45        1          -0.000032827    0.000081821    0.000016570
     46        1          -0.000053399    0.000051618    0.000068000
     47        1          -0.000046178    0.000000422    0.000078563
     48        1          -0.000030336   -0.000006802    0.000047498
     49        8          -0.000343295    0.000086819    0.000416221
     50        1          -0.000038444   -0.000122716   -0.000013335
     51        6           0.000278861    0.000080673    0.000020134
     52        8          -0.000302698   -0.000220132   -0.000343416
     53        8           0.000026342    0.000054915    0.000119231
     54        1          -0.000047355    0.000044952    0.000048601
     55        6           0.000220085    0.000102064    0.000240135
     56        1           0.000017324   -0.000225855   -0.000308911
     57        1          -0.000222742    0.000086570   -0.000052892
     58        6           0.000017238    0.000058910   -0.000097059
     59        1          -0.000003225    0.000041400    0.000050245
     60        1           0.000023991    0.000053393   -0.000009001
     61        6          -0.000056645   -0.000035827   -0.000014389
     62        1           0.000013067    0.000057174   -0.000027024
     63        1          -0.000044728   -0.000054318   -0.000065549
     64        1          -0.000073011   -0.000037331   -0.000035821
     65        6          -0.000015383    0.000012352   -0.000005038
     66        1          -0.000146457   -0.000059946   -0.000075163
     67        1          -0.000023953    0.000056600    0.000005065
     68        6           0.000029546   -0.000143359   -0.000080006
     69        1           0.000020301   -0.000146964   -0.000142071
     70        1           0.000167756   -0.000158590   -0.000159985
     71        1          -0.000033491   -0.000188560   -0.000190449
     72        6           0.000007920    0.000047235    0.000046449
     73        1          -0.000008321    0.000048907    0.000064421
     74        1           0.000003051    0.000033481    0.000073402
     75        6          -0.000030758   -0.000019121    0.000051125
     76        1           0.000059367    0.000061931    0.000021057
     77        1           0.000012618    0.000009043    0.000029083
 -------------------------------------------------------------------
 Cartesian Forces:  Max     0.000416221 RMS     0.000082366
 Z-matrix is all fixed cartesians, so copy forces.
 Leave Link  716 at Thu Feb  7 13:19:27 2019, MaxMem=   104857600 cpu:               1.8 elap:               0.1
 (Enter /home/xinyan/g16/l103.exe)

 GradGradGradGradGradGradGradGradGradGradGradGradGradGradGradGradGradGrad
 Berny optimization.
 Search for a local minimum.
 Step number   1 out of a maximum of    2
 All quantities printed in internal units (Hartrees-Bohrs-Radians)
 Second derivative matrix not updated -- first step.
 ITU=  0
     Eigenvalues ---    0.00000   0.00000   0.00000   0.00000   0.00000
     Eigenvalues ---    0.00000   0.00005   0.00013   0.00018   0.00021
     Eigenvalues ---    0.00037   0.00038   0.00084   0.00093   0.00114
     Eigenvalues ---    0.00136   0.00139   0.00204   0.00234   0.00293
     Eigenvalues ---    0.00391   0.00408   0.00448   0.00501   0.00588
     Eigenvalues ---    0.00607   0.00615   0.00697   0.00710   0.00846
     Eigenvalues ---    0.00965   0.01119   0.01157   0.01483   0.01653
     Eigenvalues ---    0.01677   0.01891   0.01910   0.02042   0.02155
     Eigenvalues ---    0.02291   0.02304   0.02447   0.02530   0.02876
     Eigenvalues ---    0.02971   0.03080   0.03108   0.03218   0.03453
     Eigenvalues ---    0.03535   0.03721   0.03891   0.04192   0.04313
     Eigenvalues ---    0.04367   0.04800   0.04844   0.04857   0.04926
     Eigenvalues ---    0.05025   0.05067   0.05113   0.05118   0.05149
     Eigenvalues ---    0.05183   0.05255   0.05362   0.05467   0.05588
     Eigenvalues ---    0.05646   0.05670   0.05713   0.05745   0.05792
     Eigenvalues ---    0.06013   0.06138   0.06308   0.06529   0.06565
     Eigenvalues ---    0.06831   0.06849   0.06971   0.07021   0.07108
     Eigenvalues ---    0.07141   0.07241   0.07269   0.07330   0.07383
     Eigenvalues ---    0.07640   0.07814   0.07860   0.07945   0.08085
     Eigenvalues ---    0.08462   0.08527   0.08840   0.09036   0.09704
     Eigenvalues ---    0.09763   0.10164   0.10465   0.11264   0.11525
     Eigenvalues ---    0.11833   0.12137   0.12615   0.12843   0.12890
     Eigenvalues ---    0.12931   0.13027   0.13364   0.13673   0.13925
     Eigenvalues ---    0.14132   0.14407   0.14652   0.15700   0.15766
     Eigenvalues ---    0.16014   0.16109   0.16845   0.16957   0.16979
     Eigenvalues ---    0.17264   0.17299   0.17787   0.17876   0.19571
     Eigenvalues ---    0.19691   0.20345   0.20633   0.21604   0.21682
     Eigenvalues ---    0.23061   0.23350   0.23857   0.24818   0.26380
     Eigenvalues ---    0.27465   0.28595   0.29498   0.30037   0.30635
     Eigenvalues ---    0.31426   0.32300   0.34043   0.34735   0.36298
     Eigenvalues ---    0.36669   0.39395   0.40030   0.41190   0.43100
     Eigenvalues ---    0.43529   0.44546   0.48112   0.49052   0.50157
     Eigenvalues ---    0.53083   0.56777   0.57567   0.60076   0.64740
     Eigenvalues ---    0.65415   0.66332   0.67332   0.68217   0.68749
     Eigenvalues ---    0.70485   0.77631   0.78081   0.78613   0.81332
     Eigenvalues ---    0.83020   0.83345   0.85643   0.86142   0.87302
     Eigenvalues ---    0.88020   0.88684   0.90535   0.91302   0.93881
     Eigenvalues ---    0.94345   0.94798   0.94889   0.95703   0.96372
     Eigenvalues ---    0.97936   0.98008   0.99481   1.00429   1.00517
     Eigenvalues ---    1.00794   1.03970   1.04297   1.04481   1.06155
     Eigenvalues ---    1.06385   1.06767   1.07153   1.08730   1.09157
     Eigenvalues ---    1.13322   1.15675   1.15767   1.17205   1.19771
     Eigenvalues ---    1.21207   1.24078   1.26224   1.27759   1.37137
     Eigenvalues ---    1.47224   1.53546   1.58106   1.58815   1.58920
     Eigenvalues ---    1.59565   1.66827   1.72986   1.84261   2.34818
 Eigenvalue     1 is   0.00D+00 Eigenvector:
                          Y46       Y41       Y47       Y45       Y42
   1                    0.13507   0.13507   0.13507   0.13507   0.13507
                          Y40       Y43       Y39       Y48       Y44
   1                    0.13507   0.13507   0.13507   0.13507   0.13507
 Eigenvalue     2 is   5.45D-08 Eigenvector:
                          Y46       Y47       Y41       X45       X52
   1                    0.18118   0.15570   0.15198  -0.14572  -0.14571
                          X54       Y45       Y42       X53       X44
   1                   -0.14497   0.13904   0.13772  -0.13162  -0.13043
 Eigenvalue     3 is   6.96D-08 Eigenvector:
                          Z47       Y46       Z46       Z42       X54
   1                    0.19327  -0.18241   0.17931   0.16600   0.16147
                          Z41       X46       Z71       Y47       Z69
   1                    0.15833  -0.15619  -0.14726  -0.14665  -0.14617
 Eigenvalue     4 is   1.62D-07 Eigenvector:
                          Z77       Z76       Z57       Z71       Z75
   1                    0.18872   0.18126  -0.17219  -0.17081   0.16156
                          Y64       Z53       Z54       Z33       Z66
   1                   -0.15694  -0.15605  -0.15262   0.15084  -0.14803
 Eigenvalue     5 is   2.51D-07 Eigenvector:
                          Z47       Y46       Y64       Y9        Y47
   1                    0.18262   0.17376   0.15964  -0.15798   0.14858
                          Z42       Z48       Y71       Y7        Z46
   1                    0.14574   0.14316  -0.14274  -0.13913   0.13828
 Eigenvalue     6 is   4.71D-07 Eigenvector:
                          Y69       Z54       Y48       Y59       Y71
   1                    0.24750  -0.24674  -0.23168  -0.23080   0.19232
                          Y66       Y45       Z53       Z70       Z69
   1                    0.19182   0.18643  -0.18503   0.18133   0.17221
 Eigenvalue     7 is   5.33D-05 Eigenvector:
                          X69       X45       X70       X46       Z69
   1                    0.26660  -0.23266   0.22534  -0.22171   0.21664
                          Z70       X68       X67       X40       Z68
   1                    0.21630   0.20627   0.19370  -0.17929   0.17761
 Quadratic step=5.561D+00 exceeds max=3.000D-01 adjusted using Lamda=-2.088D-03.
 Angle between NR and scaled steps=  21.40 degrees.
 Angle between quadratic step and forces=  55.42 degrees.
 Linear search not attempted -- first point.
 B after Tr=    -0.000636    0.000291    0.000712
         Rot=    1.000000   -0.000175    0.000082   -0.000131 Ang=  -0.03 deg.
 Variable       Old X    -DE/DX   Delta X   Delta X   Delta X     New X
                                 (Linear)    (Quad)   (Total)
    X1       -9.30072   0.00005   0.00000   0.01838   0.01776  -9.28297
    Y1        0.46489   0.00000   0.00000   0.00593   0.00408   0.46897
    Z1       -0.81094  -0.00001   0.00000  -0.00447  -0.00513  -0.81606
    X2       -9.64928   0.00003   0.00000   0.01027   0.01053  -9.63875
    Y2       -1.95350   0.00002   0.00000   0.00625   0.00486  -1.94865
    Z2       -2.36274   0.00003   0.00000  -0.00312  -0.00468  -2.36742
    X3       -7.13141   0.00003   0.00000   0.00656   0.00724  -7.12417
    Y3       -2.81473   0.00000   0.00000  -0.00133  -0.00167  -2.81640
    Z3       -3.51013   0.00000   0.00000  -0.00603  -0.00748  -3.51761
    X4       -5.24093   0.00004   0.00000   0.00760   0.00804  -5.23289
    Y4       -3.24200   0.00002   0.00000  -0.00606  -0.00665  -3.24865
    Z4       -1.37893  -0.00003   0.00000  -0.00783  -0.00912  -1.38805
    X5       -4.81391   0.00006   0.00000   0.01539   0.01494  -4.79897
    Y5       -0.78142  -0.00002   0.00000  -0.00699  -0.00800  -0.78942
    Z5        0.15084  -0.00009   0.00000  -0.00943  -0.00979   0.14105
    X6       -7.32405   0.00004   0.00000   0.01963   0.01876  -7.30529
    Y6        0.12291   0.00001   0.00000   0.00092  -0.00114   0.12177
    Z6        1.27708   0.00001   0.00000  -0.00685  -0.00730   1.26978
    X7       -7.35977  -0.00000   0.00000   0.00028   0.00160  -7.35817
    Y7       -4.54621   0.00001   0.00000  -0.00086  -0.00087  -4.54708
    Z7       -4.62066  -0.00002   0.00000  -0.00545  -0.00754  -4.62821
    X8      -10.39610   0.00002   0.00000   0.00762   0.00808 -10.38802
    Y8       -3.46047   0.00002   0.00000   0.00880   0.00678  -3.45368
    Z8       -1.14776  -0.00001   0.00000  -0.00160  -0.00381  -1.15158
    X9      -11.03249   0.00002   0.00000   0.00916   0.00960 -11.02289
    Y9       -1.65253   0.00003   0.00000   0.00964   0.00841  -1.64412
    Z9       -3.87080   0.00001   0.00000  -0.00138  -0.00307  -3.87387
   X10       -8.69408   0.00004   0.00000   0.02098   0.02016  -8.67392
   Y10        1.99653   0.00002   0.00000   0.00410   0.00286   1.99939
   Z10       -2.07271  -0.00001   0.00000  -0.00548  -0.00550  -2.07821
   X11      -11.10613   0.00005   0.00000   0.02103   0.02012 -11.08601
   Y11        1.04046   0.00002   0.00000   0.01092   0.00830   1.04877
   Z11        0.01962   0.00002   0.00000  -0.00215  -0.00290   0.01671
   X12       -5.97023   0.00002   0.00000   0.00604   0.00665  -5.96358
   Y12       -4.69400  -0.00007   0.00000  -0.00432  -0.00555  -4.69956
   Z12       -0.09949   0.00005   0.00000  -0.00637  -0.00829  -0.10779
   X13       -4.18735   0.00005   0.00000   0.01949   0.01889  -4.16846
   Y13        0.66456  -0.00006   0.00000  -0.00932  -0.00969   0.65487
   Z13       -1.19754  -0.00000   0.00000  -0.00986  -0.00960  -1.20714
   X14       -7.99745   0.00005   0.00000   0.01739   0.01664  -7.98081
   Y14       -1.24988   0.00001   0.00000   0.00337   0.00064  -1.24924
   Z14        2.67118  -0.00001   0.00000  -0.00556  -0.00660   2.66459
   X15       -6.98299   0.00008   0.00000   0.02654   0.02503  -6.95796
   Y15        1.91756  -0.00001   0.00000   0.00009  -0.00222   1.91534
   Z15        2.25047  -0.00001   0.00000  -0.00773  -0.00749   2.24299
   X16       -6.45406   0.00000   0.00000   0.00898   0.00948  -6.44458
   Y16       -1.32517   0.00000   0.00000  -0.00344  -0.00315  -1.32832
   Z16       -4.78709  -0.00004   0.00000  -0.00727  -0.00809  -4.79518
   X17       -2.73434   0.00001   0.00000   0.00630   0.00712  -2.72722
   Y17       -4.14604  -0.00001   0.00000  -0.00936  -0.00900  -4.15504
   Z17       -2.21493  -0.00002   0.00000  -0.00747  -0.00866  -2.22359
   X18       -1.41546   0.00001   0.00000   0.00865   0.00941  -1.40605
   Y18       -2.82089  -0.00001   0.00000  -0.00927  -0.00795  -2.82883
   Z18       -3.97872  -0.00003   0.00000  -0.00563  -0.00614  -3.98486
   X19       -1.44116   0.00001   0.00000   0.00428   0.00523  -1.43593
   Y19       -5.69032  -0.00001   0.00000  -0.00808  -0.00794  -5.69827
   Z19       -0.61975   0.00000   0.00000  -0.00457  -0.00609  -0.62585
   X20        1.14735   0.00001   0.00000   0.00923   0.01004   1.15739
   Y20       -2.93066  -0.00000   0.00000  -0.00546  -0.00341  -2.93408
   Z20       -4.14523  -0.00001   0.00000   0.00131   0.00119  -4.14404
   X21       -2.51887   0.00002   0.00000   0.01012   0.01077  -2.50810
   Y21       -1.60948  -0.00003   0.00000  -0.01108  -0.00962  -1.61910
   Z21       -5.20485  -0.00003   0.00000  -0.00875  -0.00902  -5.21388
   X22        1.12248   0.00002   0.00000   0.00465   0.00566   1.12814
   Y22       -5.87707  -0.00001   0.00000  -0.00382  -0.00301  -5.88008
   Z22       -0.65103   0.00002   0.00000   0.00272   0.00155  -0.64948
   X23       -2.57228  -0.00000   0.00000   0.00192   0.00290  -2.56938
   Y23       -6.66707  -0.00004   0.00000  -0.00945  -0.01010  -6.67717
   Z23        0.78303  -0.00005   0.00000  -0.00747  -0.00953   0.77350
   X24        2.54952  -0.00000   0.00000   0.00628   0.00715   2.55668
   Y24       -4.31054  -0.00003   0.00000  -0.00090   0.00086  -4.30968
   Z24       -2.30016   0.00003   0.00000   0.00700   0.00662  -2.29354
   X25        2.09338   0.00004   0.00000   0.01150   0.01226   2.10564
   Y25       -1.82113   0.00001   0.00000  -0.00454  -0.00175  -1.82287
   Z25       -5.57783   0.00001   0.00000   0.00348   0.00390  -5.57393
   X26        2.02123   0.00001   0.00000   0.00276   0.00383   2.02506
   Y26       -7.03632  -0.00001   0.00000  -0.00197  -0.00142  -7.03774
   Z26        0.76989   0.00000   0.00000   0.00543   0.00400   0.77390
   X27        5.04752   0.00002   0.00000   0.00521   0.00601   5.05352
   Y27       -4.14510   0.00006   0.00000   0.00611   0.00846  -4.13663
   Z27       -2.13142   0.00002   0.00000   0.01559   0.01569  -2.11574
   X28        6.40579   0.00000   0.00000   0.00031   0.00098   6.40678
   Y28       -5.10795   0.00003   0.00000   0.01312   0.01504  -5.09291
   Z28        0.09396   0.00007   0.00000   0.02164   0.02162   0.11558
   X29        6.16733   0.00000   0.00000   0.00162   0.00281   6.17013
   Y29       -7.15333   0.00003   0.00000   0.01338   0.01518  -7.13816
   Z29        0.26604   0.00007   0.00000   0.02651   0.02574   0.29177
   X30        5.65321  -0.00001   0.00000  -0.00457  -0.00442   5.64879
   Y30       -4.14279   0.00006   0.00000   0.01705   0.01818  -4.12461
   Z30        1.77392   0.00005   0.00000   0.01728   0.01748   1.79140
   X31        6.45224  -0.00000   0.00000   0.00383   0.00429   6.45653
   Y31       -2.08078   0.00003   0.00000   0.00809   0.01124  -2.06954
   Z31       -3.35145   0.00003   0.00000   0.01751   0.01856  -3.33289
   X32        6.94618  -0.00000   0.00000   0.00583   0.00674   6.95292
   Y32       -2.61105   0.00004   0.00000   0.00896   0.01292  -2.59813
   Z32       -5.29371   0.00005   0.00000   0.01783   0.01878  -5.27493
   X33        5.27398  -0.00000   0.00000   0.00183   0.00184   5.27582
   Y33       -0.38360   0.00003   0.00000   0.00674   0.00958  -0.37402
   Z33       -3.34587   0.00008   0.00000   0.01709   0.01854  -3.32733
   X34       -2.72653   0.00006   0.00000   0.01437   0.01368  -2.71286
   Y34       -0.99184  -0.00002   0.00000  -0.01336  -0.01445  -1.00629
   Z34        1.92869  -0.00006   0.00000  -0.00965  -0.00974   1.91896
   X35       -2.84047   0.00011   0.00000   0.00726   0.00658  -2.83389
   Y35       -2.65267  -0.00005   0.00000  -0.01467  -0.01671  -2.66937
   Z35        4.52805  -0.00000   0.00000  -0.01111  -0.01180   4.51625
   X36       -5.14924   0.00001   0.00000   0.00763   0.00736  -5.14188
   Y36       -4.18179  -0.00006   0.00000  -0.01489  -0.01750  -4.19930
   Z36        4.46459  -0.00011   0.00000  -0.02009  -0.02170   4.44289
   X37       -0.42831  -0.00001   0.00000   0.00637   0.00598  -0.42233
   Y37       -3.97103  -0.00005   0.00000  -0.01465  -0.01617  -3.98721
   Z37        4.84943  -0.00005   0.00000  -0.00450  -0.00526   4.84417
   X38       -1.30204  -0.00002   0.00000  -0.00779  -0.00970  -1.31174
   Y38        4.60441   0.00007   0.00000   0.02128   0.02108   4.62550
   Z38        0.41315   0.00003   0.00000   0.01355   0.01567   0.42882
   X39       -0.35791  -0.00002   0.00000  -0.01060  -0.01190  -0.36981
   Y39        3.69162   0.00010   0.00000   0.02911   0.02996   3.72158
   Z39       -1.89177   0.00002   0.00000   0.00921   0.01117  -1.88060
   X40       -1.77500  -0.00007   0.00000  -0.01691  -0.01790  -1.79290
   Y40        3.90521   0.00008   0.00000   0.02908   0.03034   3.93555
   Z40       -4.10182   0.00003   0.00000   0.01321   0.01501  -4.08681
   X41       -4.16475  -0.00004   0.00000  -0.02091  -0.02219  -4.18694
   Y41        5.01724   0.00005   0.00000   0.02024   0.02086   5.03810
   Z41       -4.07559   0.00003   0.00000   0.02178   0.02357  -4.05203
   X42       -5.12584  -0.00005   0.00000  -0.01857  -0.02047  -5.14631
   Y42        5.92401   0.00001   0.00000   0.01134   0.01091   5.93491
   Z42       -1.80023   0.00009   0.00000   0.02633   0.02827  -1.77195
   X43       -3.69831  -0.00004   0.00000  -0.01192  -0.01412  -3.71243
   Y43        5.71807   0.00004   0.00000   0.01242   0.01159   5.72965
   Z43        0.40669   0.00005   0.00000   0.02208   0.02419   0.43087
   X44        1.44436   0.00000   0.00000  -0.00726  -0.00830   1.43606
   Y44        2.71438   0.00004   0.00000   0.03506   0.03639   2.75078
   Z44       -1.89012   0.00000   0.00000   0.00246   0.00438  -1.88574
   X45       -0.99165  -0.00003   0.00000  -0.01872  -0.01924  -1.01089
   Y45        3.20671   0.00008   0.00000   0.03599   0.03808   3.24479
   Z45       -5.87038   0.00002   0.00000   0.00965   0.01133  -5.85905
   X46       -5.25633  -0.00005   0.00000  -0.02593  -0.02697  -5.28330
   Y46        5.18822   0.00005   0.00000   0.02018   0.02111   5.20934
   Z46       -5.80624   0.00007   0.00000   0.02498   0.02664  -5.77960
   X47       -6.98152  -0.00005   0.00000  -0.02190  -0.02403  -7.00555
   Y47        6.80097   0.00000   0.00000   0.00378   0.00284   6.80382
   Z47       -1.73972   0.00008   0.00000   0.03313   0.03508  -1.70464
   X48       -4.46573  -0.00003   0.00000  -0.01024  -0.01293  -4.47865
   Y48        6.44899  -0.00001   0.00000   0.00562   0.00397   6.45296
   Z48        2.16922   0.00005   0.00000   0.02558   0.02782   2.19703
   X49        1.07255  -0.00034   0.00000  -0.00772  -0.00962   1.06293
   Y49        2.35282   0.00009   0.00000   0.02223   0.02142   2.37424
   Z49        3.92071   0.00042   0.00000   0.01467   0.01639   3.93710
   X50       -0.88320  -0.00004   0.00000   0.01571   0.01499  -0.86821
   Y50       -0.52364  -0.00012   0.00000  -0.01703  -0.01744  -0.54109
   Z50        1.37098  -0.00001   0.00000  -0.00753  -0.00716   1.36382
   X51        3.30426   0.00028   0.00000  -0.02225  -0.02361   3.28065
   Y51        1.03185   0.00008   0.00000   0.00444   0.00462   1.03647
   Z51        2.76499   0.00002   0.00000   0.00439   0.00601   2.77100
   X52        2.64981  -0.00030   0.00000  -0.04476  -0.04549   2.60432
   Y52       -0.04998  -0.00022   0.00000  -0.00318  -0.00244  -0.05242
   Z52        0.63013  -0.00034   0.00000   0.01429   0.01542   0.64555
   X53        3.94796   0.00003   0.00000  -0.01755  -0.01879   3.92917
   Y53       -0.69366   0.00005   0.00000   0.01107   0.01073  -0.68293
   Z53        4.70674   0.00012   0.00000   0.00891   0.01003   4.71677
   X54        2.63723  -0.00005   0.00000  -0.02508  -0.02597   2.61125
   Y54       -1.98489   0.00004   0.00000   0.01798   0.01732  -1.96758
   Z54        4.64689   0.00005   0.00000   0.02516   0.02561   4.67250
   X55        5.54791   0.00022   0.00000  -0.01030  -0.01214   5.53577
   Y55        2.91301   0.00010   0.00000  -0.01005  -0.00925   2.90376
   Z55        2.71057   0.00024   0.00000  -0.02014  -0.01750   2.69307
   X56        5.35923   0.00002   0.00000   0.01195   0.00951   5.36873
   Y56        4.20774  -0.00023   0.00000  -0.00426  -0.00407   4.20367
   Z56        4.32184  -0.00031   0.00000  -0.02347  -0.02039   4.30145
   X57        7.25129  -0.00022   0.00000  -0.01586  -0.01746   7.23383
   Y57        1.79460   0.00009   0.00000  -0.02066  -0.01955   1.77505
   Z57        3.09743  -0.00005   0.00000  -0.02986  -0.02733   3.07010
   X58        0.20649   0.00002   0.00000  -0.00094  -0.00327   0.20322
   Y58        4.62847   0.00006   0.00000   0.02257   0.02190   4.65037
   Z58        2.88556  -0.00010   0.00000   0.00944   0.01182   2.89737
   X59       -1.04445  -0.00000   0.00000   0.00652   0.00374  -1.04071
   Y59        5.44415   0.00004   0.00000   0.03177   0.03026   5.47441
   Z59        4.32657   0.00005   0.00000   0.01078   0.01324   4.33980
   X60        1.77674   0.00002   0.00000   0.00387   0.00123   1.77797
   Y60        5.97465   0.00005   0.00000   0.01566   0.01548   5.99014
   Z60        2.66984  -0.00001   0.00000   0.00055   0.00366   2.67350
   X61       -3.06338  -0.00006   0.00000  -0.00353  -0.00521  -3.06859
   Y61       -0.40848  -0.00004   0.00000  -0.01436  -0.01732  -0.42581
   Z61        7.01712  -0.00001   0.00000  -0.01223  -0.01217   7.00495
   X62       -1.38838   0.00001   0.00000  -0.00455  -0.00652  -1.39490
   Y62        0.79144   0.00006   0.00000  -0.01176  -0.01424   0.77720
   Z62        6.85613  -0.00003   0.00000  -0.00624  -0.00548   6.85065
   X63       -4.80036  -0.00004   0.00000  -0.00405  -0.00597  -4.80633
   Y63        0.67229  -0.00005   0.00000  -0.01682  -0.02014   0.65215
   Z63        6.75566  -0.00007   0.00000  -0.01945  -0.01930   6.73636
   X64       -3.10314  -0.00007   0.00000  -0.00975  -0.01145  -3.11459
   Y64       -1.45131  -0.00004   0.00000  -0.01401  -0.01762  -1.46893
   Z64        8.79581  -0.00004   0.00000  -0.01219  -0.01251   8.78330
   X65        5.95216  -0.00002   0.00000  -0.01855  -0.02037   5.93179
   Y65        4.40204   0.00001   0.00000  -0.02078  -0.01903   4.38302
   Z65        0.27344  -0.00001   0.00000  -0.02799  -0.02476   0.24868
   X66        6.30437  -0.00015   0.00000  -0.06056  -0.06177   6.24260
   Y66        3.08462  -0.00006   0.00000  -0.02928  -0.02689   3.05773
   Z66       -1.28651  -0.00008   0.00000  -0.03032  -0.02751  -1.31402
   X67        4.24837  -0.00002   0.00000  -0.00847  -0.01048   4.23789
   Y67        5.44612   0.00006   0.00000   0.00641   0.00790   5.45402
   Z67       -0.26388   0.00001   0.00000  -0.00735  -0.00403  -0.26791
   X68        8.15545   0.00003   0.00000   0.01615   0.01382   8.16927
   Y68        6.25174  -0.00014   0.00000  -0.05798  -0.05572   6.19603
   Z68        0.52353  -0.00008   0.00000  -0.06075  -0.05652   0.46701
   X69        8.49496   0.00002   0.00000   0.00955   0.00724   8.50221
   Y69        7.29213  -0.00015   0.00000  -0.06587  -0.06290   7.22923
   Z69       -1.23116  -0.00014   0.00000  -0.06671  -0.06206  -1.29321
   X70        7.77834   0.00017   0.00000   0.06128   0.05834   7.83668
   Y70        7.63540  -0.00016   0.00000  -0.05010  -0.04845   7.58695
   Z70        2.01745  -0.00016   0.00000  -0.05695  -0.05229   1.96516
   X71        9.90211  -0.00003   0.00000   0.00598   0.00384   9.90595
   Y71        5.26034  -0.00019   0.00000  -0.08769  -0.08514   5.17519
   Z71        1.02981  -0.00019   0.00000  -0.08431  -0.08015   0.94966
   X72        9.12881   0.00001   0.00000   0.00092   0.00148   9.13030
   Y72       -4.33120   0.00005   0.00000   0.01371   0.01653  -4.31466
   Z72       -0.43301   0.00005   0.00000   0.02584   0.02654  -0.40647
   X73       10.25651  -0.00001   0.00000  -0.00285  -0.00260  10.25391
   Y73       -4.25706   0.00005   0.00000   0.01853   0.02104  -4.23602
   Z73        1.29225   0.00006   0.00000   0.02810   0.02902   1.32127
   X74       10.01372   0.00000   0.00000   0.00443   0.00556  10.01927
   Y74       -5.66602   0.00003   0.00000   0.01096   0.01447  -5.65155
   Z74       -1.74550   0.00007   0.00000   0.03106   0.03144  -1.71406
   X75        8.78473  -0.00003   0.00000   0.00264   0.00273   8.78746
   Y75       -1.74216  -0.00002   0.00000   0.01057   0.01374  -1.72842
   Z75       -1.67269   0.00005   0.00000   0.01879   0.02034  -1.65235
   X76        8.33861   0.00006   0.00000   0.00294   0.00243   8.34103
   Y76       -0.35066   0.00006   0.00000   0.01478   0.01732  -0.33334
   Z76       -0.21231   0.00002   0.00000   0.01486   0.01683  -0.19548
   X77       10.43333   0.00001   0.00000   0.00376   0.00386  10.43719
   Y77       -1.09973   0.00001   0.00000   0.00696   0.01093  -1.08880
   Z77       -2.73462   0.00003   0.00000   0.01831   0.02036  -2.71426
         Item               Value     Threshold  Converged?
 Maximum Force            0.000416     0.000450     YES
 RMS     Force            0.000082     0.000300     YES
 Maximum Displacement     0.085142     0.001800     NO 
 RMS     Displacement     0.019675     0.001200     NO 
 Predicted change in Energy=-2.034230D-04
 GradGradGradGradGradGradGradGradGradGradGradGradGradGradGradGradGradGrad

 Leave Link  103 at Thu Feb  7 13:19:27 2019, MaxMem=   104857600 cpu:              17.9 elap:               0.8
 (Enter /home/xinyan/g16/l9999.exe)
 1\1\GINC-TSE4\Force\RM062X\6-31G(d)\C27H41N3O5S1\STEVETSE\07-Feb-2019\
 0\\#p M062X/6-31G* em=gd3 force int=ultrafine\\Title\\0,1\C,-4.92173,0
 .24601,-0.42913\C,-5.10618,-1.03375,-1.25031\C,-3.77378,-1.48949,-1.85
 748\C,-2.77338,-1.71559,-0.7297\C,-2.54741,-0.41351,0.07982\C,-3.87572
 ,0.06504,0.6758\H,-3.89462,-2.40575,-2.44515\H,-5.50138,-1.8312,-0.607
 37\H,-5.83814,-0.87448,-2.04834\H,-4.60071,1.05652,-1.09683\H,-5.87711
 ,0.55059,0.01038\H,-3.15931,-2.48396,-0.05265\H,-2.21585,0.35167,-0.63
 371\H,-4.23207,-0.66141,1.41353\H,-3.69524,1.01473,1.1909\H,-3.41534,-
 0.70125,-2.53322\N,-1.44695,-2.19399,-1.17209\C,-0.74903,-1.49275,-2.1
 0545\C,-0.76263,-3.01119,-0.32796\C,0.60715,-1.55084,-2.19356\H,-1.332
 93,-0.8517,-2.75429\C,0.59399,-3.11001,-0.34451\H,-1.36119,-3.52806,0.
 41436\C,1.34915,-2.28104,-1.21719\H,1.10777,-0.9637,-2.95166\H,1.06959
 ,-3.72346,0.40741\N,2.67103,-2.19349,-1.1279\C,3.3898,-2.70301,0.04972
 \H,3.26361,-3.78538,0.14078\H,2.99155,-2.19227,0.93872\C,3.41438,-1.10
 11,-1.77351\H,3.67576,-1.38171,-2.80131\H,2.79087,-0.20299,-1.77056\N,
 -1.44282,-0.52486,1.02062\S,-1.50311,-1.40373,2.39614\O,-2.72486,-2.21
 291,2.36256\O,-0.22665,-2.10138,2.56621\C,-0.68901,2.43655,0.21863\C,-
 0.1894,1.95352,-1.00108\C,-0.93929,2.06655,-2.17059\C,-2.20389,2.65501
 ,-2.15671\C,-2.71248,3.13485,-0.95264\C,-1.95706,3.02587,0.21521\H,0.7
 6432,1.43639,-1.00021\H,-0.52476,1.69692,-3.10647\H,-2.78153,2.74549,-
 3.07253\H,-3.69446,3.59892,-0.92062\H,-2.36316,3.41266,1.1479\O,0.5675
 7,1.24506,2.07475\H,-0.46737,-0.2771,0.72549\C,1.74854,0.54603,1.46317
 \O,1.40222,-0.02645,0.33345\O,2.08917,-0.36707,2.4907\H,1.39556,-1.050
 36,2.45903\C,2.93583,1.5415,1.43437\H,2.83598,2.22664,2.28702\H,3.8372
 2,0.94966,1.63909\C,0.10927,2.44928,1.52697\H,-0.5527,2.88092,2.28952\
 H,0.94021,3.16165,1.41282\C,-1.62107,-0.21616,3.7133\H,-0.7347,0.41881
 ,3.62811\H,-2.54024,0.35576,3.57494\H,-1.64211,-0.768,4.65454\C,3.1497
 5,2.32946,0.1447\H,3.33613,1.63231,-0.68079\H,2.24814,2.88196,-0.13964
 \C,4.31568,3.30828,0.27704\H,4.49534,3.85883,-0.6515\H,4.11612,4.04048
 ,1.06759\H,5.23997,2.78365,0.54495\C,4.83076,-2.29197,-0.22914\H,5.427
 51,-2.25274,0.68383\H,5.29903,-2.99833,-0.92368\C,4.64868,-0.92191,-0.
 88515\H,4.4126,-0.18556,-0.11235\H,5.52108,-0.58195,-1.4471\\Version=E
 S64L-G16RevA.03\State=1-A\HF=-1991.3577691\RMSD=9.228e-09\RMSF=8.237e-
 05\Dipole=-1.0601905,-0.730135,-2.5022019\Quadrupole=7.4949726,-4.9663
 461,-2.5286265,-9.3936684,-3.831938,7.3003129\PG=C01 [X(C27H41N3O5S1)]
 \\@


 SCIENCE IS LONG AND LIFE IS SHORT.

                     DON MOSER IN THE FEBRUARY 1979 SMITHSONIAN
 Job cpu time:       0 days  1 hours 17 minutes 50.5 seconds.
 Elapsed time:       0 days  0 hours  3 minutes 15.8 seconds.
 File lengths (MBytes):  RWF=    216 Int=      0 D2E=      0 Chk=     25 Scr=      1
 Normal termination of Gaussian 16 at Thu Feb  7 13:19:28 2019.
