 Entering Gaussian System, Link 0=g16
 Input=C27N3H41SO5-35.gjf
 Output=C27N3H41SO5-35.log
 Initial command:
 /home/xinyan/g16/l1.exe "/local/home/tmp/Gau-15278.inp" -scrdir="/local/home/tmp/"
 Entering Link 1 = /home/xinyan/g16/l1.exe PID=     15279.
  
 Copyright (c) 1988,1990,1992,1993,1995,1998,2003,2009,2016,
            Gaussian, Inc.  All Rights Reserved.
  
 This is part of the Gaussian(R) 16 program.  It is based on
 the Gaussian(R) 09 system (copyright 2009, Gaussian, Inc.),
 the Gaussian(R) 03 system (copyright 2003, Gaussian, Inc.),
 the Gaussian(R) 98 system (copyright 1998, Gaussian, Inc.),
 the Gaussian(R) 94 system (copyright 1995, Gaussian, Inc.),
 the Gaussian 92(TM) system (copyright 1992, Gaussian, Inc.),
 the Gaussian 90(TM) system (copyright 1990, Gaussian, Inc.),
 the Gaussian 88(TM) system (copyright 1988, Gaussian, Inc.),
 the Gaussian 86(TM) system (copyright 1986, Carnegie Mellon
 University), and the Gaussian 82(TM) system (copyright 1983,
 Carnegie Mellon University). Gaussian is a federally registered
 trademark of Gaussian, Inc.
  
 This software contains proprietary and confidential information,
 including trade secrets, belonging to Gaussian, Inc.
  
 This software is provided under written license and may be
 used, copied, transmitted, or stored only in accord with that
 written license.
  
 The following legend is applicable only to US Government
 contracts under FAR:
  
                    RESTRICTED RIGHTS LEGEND
  
 Use, reproduction and disclosure by the US Government is
 subject to restrictions as set forth in subparagraphs (a)
 and (c) of the Commercial Computer Software - Restricted
 Rights clause in FAR 52.227-19.
  
 Gaussian, Inc.
 340 Quinnipiac St., Bldg. 40, Wallingford CT 06492
  
  
 ---------------------------------------------------------------
 Warning -- This program may not be used in any manner that
 competes with the business of Gaussian, Inc. or will provide
 assistance to any competitor of Gaussian, Inc.  The licensee
 of this program is prohibited from giving any competitor of
 Gaussian, Inc. access to this program.  By using this program,
 the user acknowledges that Gaussian, Inc. is engaged in the
 business of creating and licensing software in the field of
 computational chemistry and represents and warrants to the
 licensee that it is not a competitor of Gaussian, Inc. and that
 it will not use this program in any manner prohibited above.
 ---------------------------------------------------------------
  

 Cite this work as:
 Gaussian 16, Revision A.03,
 M. J. Frisch, G. W. Trucks, H. B. Schlegel, G. E. Scuseria, 
 M. A. Robb, J. R. Cheeseman, G. Scalmani, V. Barone, 
 G. A. Petersson, H. Nakatsuji, X. Li, M. Caricato, A. V. Marenich, 
 J. Bloino, B. G. Janesko, R. Gomperts, B. Mennucci, H. P. Hratchian, 
 J. V. Ortiz, A. F. Izmaylov, J. L. Sonnenberg, D. Williams-Young, 
 F. Ding, F. Lipparini, F. Egidi, J. Goings, B. Peng, A. Petrone, 
 T. Henderson, D. Ranasinghe, V. G. Zakrzewski, J. Gao, N. Rega, 
 G. Zheng, W. Liang, M. Hada, M. Ehara, K. Toyota, R. Fukuda, 
 J. Hasegawa, M. Ishida, T. Nakajima, Y. Honda, O. Kitao, H. Nakai, 
 T. Vreven, K. Throssell, J. A. Montgomery, Jr., J. E. Peralta, 
 F. Ogliaro, M. J. Bearpark, J. J. Heyd, E. N. Brothers, K. N. Kudin, 
 V. N. Staroverov, T. A. Keith, R. Kobayashi, J. Normand, 
 K. Raghavachari, A. P. Rendell, J. C. Burant, S. S. Iyengar, 
 J. Tomasi, M. Cossi, J. M. Millam, M. Klene, C. Adamo, R. Cammi, 
 J. W. Ochterski, R. L. Martin, K. Morokuma, O. Farkas, 
 J. B. Foresman, and D. J. Fox, Gaussian, Inc., Wallingford CT, 2016.
 
 ******************************************
 Gaussian 16:  ES64L-G16RevA.03 25-Dec-2016
                 7-Feb-2019 
 ******************************************
 %nproc=24
 Will use up to   24 processors via shared memory.
 ------------------------------------------
 #p M062X/6-31G* em=gd3 force int=ultrafine
 ------------------------------------------
 1/10=7,30=1,38=1/1,3;
 2/12=2,17=6,18=5,40=1/2;
 3/5=1,6=6,7=1,11=2,25=1,30=1,71=1,74=-55,75=-5,124=31/1,2,3;
 4//1;
 5/5=2,38=5/2;
 6/7=2,8=2,9=2,10=2,28=1/1;
 7/29=1/1,2,3,16;
 1/10=7,30=1/3;
 99//99;
 Leave Link    1 at Thu Feb  7 10:25:45 2019, MaxMem=           0 cpu:               2.5 elap:               0.1
 (Enter /home/xinyan/g16/l101.exe)
 -----
 Title
 -----
 Symbolic Z-matrix:
 Charge =  0 Multiplicity = 1
 C                    -4.98613   0.23431  -0.42222 
 C                    -5.13298  -1.04392  -1.25277 
 C                    -3.78052  -1.47697  -1.83125 
 C                    -2.79695  -1.70019  -0.68682 
 C                    -2.62083  -0.40559   0.14321 
 C                    -3.96837   0.05458   0.70742 
 H                    -3.87506  -2.3887   -2.43055 
 H                    -5.53218  -1.84914  -0.62214 
 H                    -5.84771  -0.89159  -2.06748 
 H                    -4.65238   1.05149  -1.07626 
 H                    -5.95585   0.52871  -0.0083 
 H                    -3.18065  -2.48645  -0.0285 
 H                    -2.27229   0.37042  -0.55051 
 H                    -4.33202  -0.68047   1.43345 
 H                    -3.80747   1.002     1.23416 
 H                    -3.4189   -0.67674  -2.49088 
 N                    -1.45659  -2.15119  -1.11657 
 C                    -0.77002  -1.46848  -2.07166 
 C                    -0.76131  -2.9626   -0.27634 
 C                     0.58291  -1.54671  -2.19265 
 H                    -1.35955  -0.83059  -2.71764 
 C                     0.59313  -3.0798   -0.32466 
 H                    -1.34878  -3.47241   0.47935 
 C                     1.34228  -2.28377  -1.23465 
 H                     1.07154  -0.97587  -2.97097 
 H                     1.07687  -3.69687   0.41914 
 N                     2.66878  -2.24074  -1.19468 
 C                     3.40021  -2.75922  -0.02747 
 H                     3.26952  -3.84152   0.06123 
 H                     3.01529  -2.24838   0.86652 
 C                     3.43366  -1.17894  -1.87113 
 H                     3.70725  -1.50352  -2.88287 
 H                     2.82911  -0.27009  -1.90533 
 N                    -1.54459  -0.52003   1.11131 
 S                    -1.55984  -1.41771   2.47346 
 O                    -2.78404  -2.2208    2.44469 
 O                    -0.27957  -2.11328   2.60504 
 C                    -0.68229   2.43661   0.14678 
 C                    -0.17931   1.86918  -1.03219 
 C                    -0.90411   1.96376  -2.21996 
 C                    -2.14403   2.60185  -2.25297 
 C                    -2.65638   3.15548  -1.08117 
 C                    -1.92593   3.07353   0.104 
 H                     0.75634   1.313    -0.97594 
 H                    -0.49176   1.53826  -3.13283 
 H                    -2.70281   2.67337  -3.18203 
 H                    -3.622     3.65352  -1.08987 
 H                    -2.33158   3.51074   1.01428 
 O                     0.54157   1.12395   1.86636 
 H                    -0.65292  -0.01567   0.98118 
 C                     1.89777   0.51925   1.37117 
 O                     1.74615  -0.02125   0.20934 
 O                     2.1383   -0.38812   2.4289 
 H                     1.44676  -1.06889   2.34188 
 C                     2.9791    1.61137   1.50731 
 H                     2.74806   2.26704   2.35662 
 H                     3.9051    1.0871    1.77736 
 C                     0.09397   2.38658   1.45967 
 H                    -0.57713   2.75721   2.24938 
 H                     0.92551   3.10411   1.4108 
 C                    -1.62134  -0.23331   3.79852 
 H                    -0.74014   0.40238   3.66689 
 H                    -2.54841   0.33523   3.71128 
 H                    -1.58233  -0.78142   4.74123 
 C                     3.22594   2.42183   0.23702 
 H                     3.52286   1.73643  -0.56498 
 H                     2.30056   2.89232  -0.11596 
 C                     4.29462   3.49299   0.44201 
 H                     4.49161   4.05272  -0.47762 
 H                     3.98591   4.21017   1.21089 
 H                     5.23814   3.0452    0.77367 
 C                     4.84067  -2.35031  -0.3112 
 H                     5.43729  -2.30868   0.60193 
 H                     5.30978  -3.05828  -1.00375 
 C                     4.6542   -0.98292  -0.9697 
 H                     4.38607  -0.2514   -0.20222 
 H                     5.53023  -0.63416  -1.52076 
 
 ITRead=  0  0  0  0  0  0  0  0  0  0  0  0  0  0  0  0  0  0  0  0
 ITRead=  0  0  0  0  0  0  0  0  0  0  0  0  0  0  0  0  0  0  0  0
 ITRead=  0  0  0  0  0  0  0  0  0  0  0  0  0  0  0  0  0  0  0  0
 ITRead=  0  0  0  0  0  0  0  0  0  0  0  0  0  0  0  0  0
 MicOpt= -1 -1 -1 -1 -1 -1 -1 -1 -1 -1 -1 -1 -1 -1 -1 -1 -1 -1 -1 -1
 MicOpt= -1 -1 -1 -1 -1 -1 -1 -1 -1 -1 -1 -1 -1 -1 -1 -1 -1 -1 -1 -1
 MicOpt= -1 -1 -1 -1 -1 -1 -1 -1 -1 -1 -1 -1 -1 -1 -1 -1 -1 -1 -1 -1
 MicOpt= -1 -1 -1 -1 -1 -1 -1 -1 -1 -1 -1 -1 -1 -1 -1 -1 -1
 NAtoms=     77 NQM=       77 NQMF=       0 NMMI=      0 NMMIF=      0
                NMic=       0 NMicF=      0.
                    Isotopes and Nuclear Properties:
 (Nuclear quadrupole moments (NQMom) in fm**2, nuclear magnetic moments (NMagM)
  in nuclear magnetons)

  Atom         1           2           3           4           5           6           7           8           9          10
 IAtWgt=          12          12          12          12          12          12           1           1           1           1
 AtmWgt=  12.0000000  12.0000000  12.0000000  12.0000000  12.0000000  12.0000000   1.0078250   1.0078250   1.0078250   1.0078250
 NucSpn=           0           0           0           0           0           0           1           1           1           1
 AtZEff=  -0.0000000  -0.0000000  -0.0000000  -0.0000000  -0.0000000  -0.0000000  -0.0000000  -0.0000000  -0.0000000  -0.0000000
 NQMom=    0.0000000   0.0000000   0.0000000   0.0000000   0.0000000   0.0000000   0.0000000   0.0000000   0.0000000   0.0000000
 NMagM=    0.0000000   0.0000000   0.0000000   0.0000000   0.0000000   0.0000000   2.7928460   2.7928460   2.7928460   2.7928460
 AtZNuc=   6.0000000   6.0000000   6.0000000   6.0000000   6.0000000   6.0000000   1.0000000   1.0000000   1.0000000   1.0000000

  Atom        11          12          13          14          15          16          17          18          19          20
 IAtWgt=           1           1           1           1           1           1          14          12          12          12
 AtmWgt=   1.0078250   1.0078250   1.0078250   1.0078250   1.0078250   1.0078250  14.0030740  12.0000000  12.0000000  12.0000000
 NucSpn=           1           1           1           1           1           1           2           0           0           0
 AtZEff=  -0.0000000  -0.0000000  -0.0000000  -0.0000000  -0.0000000  -0.0000000  -0.0000000  -0.0000000  -0.0000000  -0.0000000
 NQMom=    0.0000000   0.0000000   0.0000000   0.0000000   0.0000000   0.0000000   2.0440000   0.0000000   0.0000000   0.0000000
 NMagM=    2.7928460   2.7928460   2.7928460   2.7928460   2.7928460   2.7928460   0.4037610   0.0000000   0.0000000   0.0000000
 AtZNuc=   1.0000000   1.0000000   1.0000000   1.0000000   1.0000000   1.0000000   7.0000000   6.0000000   6.0000000   6.0000000

  Atom        21          22          23          24          25          26          27          28          29          30
 IAtWgt=           1          12           1          12           1           1          14          12           1           1
 AtmWgt=   1.0078250  12.0000000   1.0078250  12.0000000   1.0078250   1.0078250  14.0030740  12.0000000   1.0078250   1.0078250
 NucSpn=           1           0           1           0           1           1           2           0           1           1
 AtZEff=  -0.0000000  -0.0000000  -0.0000000  -0.0000000  -0.0000000  -0.0000000  -0.0000000  -0.0000000  -0.0000000  -0.0000000
 NQMom=    0.0000000   0.0000000   0.0000000   0.0000000   0.0000000   0.0000000   2.0440000   0.0000000   0.0000000   0.0000000
 NMagM=    2.7928460   0.0000000   2.7928460   0.0000000   2.7928460   2.7928460   0.4037610   0.0000000   2.7928460   2.7928460
 AtZNuc=   1.0000000   6.0000000   1.0000000   6.0000000   1.0000000   1.0000000   7.0000000   6.0000000   1.0000000   1.0000000

  Atom        31          32          33          34          35          36          37          38          39          40
 IAtWgt=          12           1           1          14          32          16          16          12          12          12
 AtmWgt=  12.0000000   1.0078250   1.0078250  14.0030740  31.9720718  15.9949146  15.9949146  12.0000000  12.0000000  12.0000000
 NucSpn=           0           1           1           2           0           0           0           0           0           0
 AtZEff=  -0.0000000  -0.0000000  -0.0000000  -0.0000000  -0.0000000  -0.0000000  -0.0000000  -0.0000000  -0.0000000  -0.0000000
 NQMom=    0.0000000   0.0000000   0.0000000   2.0440000   0.0000000   0.0000000   0.0000000   0.0000000   0.0000000   0.0000000
 NMagM=    0.0000000   2.7928460   2.7928460   0.4037610   0.0000000   0.0000000   0.0000000   0.0000000   0.0000000   0.0000000
 AtZNuc=   6.0000000   1.0000000   1.0000000   7.0000000  16.0000000   8.0000000   8.0000000   6.0000000   6.0000000   6.0000000

  Atom        41          42          43          44          45          46          47          48          49          50
 IAtWgt=          12          12          12           1           1           1           1           1          16           1
 AtmWgt=  12.0000000  12.0000000  12.0000000   1.0078250   1.0078250   1.0078250   1.0078250   1.0078250  15.9949146   1.0078250
 NucSpn=           0           0           0           1           1           1           1           1           0           1
 AtZEff=  -0.0000000  -0.0000000  -0.0000000  -0.0000000  -0.0000000  -0.0000000  -0.0000000  -0.0000000  -0.0000000  -0.0000000
 NQMom=    0.0000000   0.0000000   0.0000000   0.0000000   0.0000000   0.0000000   0.0000000   0.0000000   0.0000000   0.0000000
 NMagM=    0.0000000   0.0000000   0.0000000   2.7928460   2.7928460   2.7928460   2.7928460   2.7928460   0.0000000   2.7928460
 AtZNuc=   6.0000000   6.0000000   6.0000000   1.0000000   1.0000000   1.0000000   1.0000000   1.0000000   8.0000000   1.0000000

  Atom        51          52          53          54          55          56          57          58          59          60
 IAtWgt=          12          16          16           1          12           1           1          12           1           1
 AtmWgt=  12.0000000  15.9949146  15.9949146   1.0078250  12.0000000   1.0078250   1.0078250  12.0000000   1.0078250   1.0078250
 NucSpn=           0           0           0           1           0           1           1           0           1           1
 AtZEff=  -0.0000000  -0.0000000  -0.0000000  -0.0000000  -0.0000000  -0.0000000  -0.0000000  -0.0000000  -0.0000000  -0.0000000
 NQMom=    0.0000000   0.0000000   0.0000000   0.0000000   0.0000000   0.0000000   0.0000000   0.0000000   0.0000000   0.0000000
 NMagM=    0.0000000   0.0000000   0.0000000   2.7928460   0.0000000   2.7928460   2.7928460   0.0000000   2.7928460   2.7928460
 AtZNuc=   6.0000000   8.0000000   8.0000000   1.0000000   6.0000000   1.0000000   1.0000000   6.0000000   1.0000000   1.0000000

  Atom        61          62          63          64          65          66          67          68          69          70
 IAtWgt=          12           1           1           1          12           1           1          12           1           1
 AtmWgt=  12.0000000   1.0078250   1.0078250   1.0078250  12.0000000   1.0078250   1.0078250  12.0000000   1.0078250   1.0078250
 NucSpn=           0           1           1           1           0           1           1           0           1           1
 AtZEff=  -0.0000000  -0.0000000  -0.0000000  -0.0000000  -0.0000000  -0.0000000  -0.0000000  -0.0000000  -0.0000000  -0.0000000
 NQMom=    0.0000000   0.0000000   0.0000000   0.0000000   0.0000000   0.0000000   0.0000000   0.0000000   0.0000000   0.0000000
 NMagM=    0.0000000   2.7928460   2.7928460   2.7928460   0.0000000   2.7928460   2.7928460   0.0000000   2.7928460   2.7928460
 AtZNuc=   6.0000000   1.0000000   1.0000000   1.0000000   6.0000000   1.0000000   1.0000000   6.0000000   1.0000000   1.0000000

  Atom        71          72          73          74          75          76          77
 IAtWgt=           1          12           1           1          12           1           1
 AtmWgt=   1.0078250  12.0000000   1.0078250   1.0078250  12.0000000   1.0078250   1.0078250
 NucSpn=           1           0           1           1           0           1           1
 AtZEff=  -0.0000000  -0.0000000  -0.0000000  -0.0000000  -0.0000000  -0.0000000  -0.0000000
 NQMom=    0.0000000   0.0000000   0.0000000   0.0000000   0.0000000   0.0000000   0.0000000
 NMagM=    2.7928460   0.0000000   2.7928460   2.7928460   0.0000000   2.7928460   2.7928460
 AtZNuc=   1.0000000   6.0000000   1.0000000   1.0000000   6.0000000   1.0000000   1.0000000
 Leave Link  101 at Thu Feb  7 10:25:45 2019, MaxMem=   104857600 cpu:               5.3 elap:               0.3
 (Enter /home/xinyan/g16/l103.exe)

 GradGradGradGradGradGradGradGradGradGradGradGradGradGradGradGradGradGrad
 Berny optimization.
 Initialization pass.
 Trust Radius=3.00D-01 FncErr=1.00D-07 GrdErr=1.00D-07 EigMax=2.50D+02 EigMin=1.00D-04
 Number of steps in this run=      2 maximum allowed number of steps=      2.
 GradGradGradGradGradGradGradGradGradGradGradGradGradGradGradGradGradGrad

 Leave Link  103 at Thu Feb  7 10:25:45 2019, MaxMem=   104857600 cpu:               1.6 elap:               0.1
 (Enter /home/xinyan/g16/l202.exe)
 Stoichiometry    C27H41N3O5S
 Framework group  C1[X(C27H41N3O5S)]
 Deg. of freedom   225
 Full point group                 C1      NOp   1
 Largest Abelian subgroup         C1      NOp   1
 Largest concise Abelian subgroup C1      NOp   1
                         Standard orientation:                         
 ---------------------------------------------------------------------
 Center     Atomic      Atomic             Coordinates (Angstroms)
 Number     Number       Type             X           Y           Z
 ---------------------------------------------------------------------
      1          6           0       -4.864304    0.512133   -0.554666
      2          6           0       -5.034225   -0.781589   -1.356328
      3          6           0       -3.692379   -1.243726   -1.937016
      4          6           0       -2.701508   -1.454744   -0.796576
      5          6           0       -2.502125   -0.145034    0.003963
      6          6           0       -3.838844    0.343849    0.569761
      7          1           0       -3.803436   -2.166780   -2.515797
      8          1           0       -5.437681   -1.568129   -0.705167
      9          1           0       -5.754231   -0.637762   -2.167932
     10          1           0       -4.526351    1.310948   -1.228924
     11          1           0       -5.826619    0.827375   -0.138818
     12          1           0       -3.088988   -2.221933   -0.118272
     13          1           0       -2.150242    0.611593   -0.709209
     14          1           0       -4.205045   -0.370952    1.314486
     15          1           0       -3.661640    1.300207    1.074665
     16          1           0       -3.326817   -0.462323   -2.616739
     17          7           0       -1.370662   -1.931502   -1.228085
     18          6           0       -0.684254   -1.277941   -2.203467
     19          6           0       -0.677980   -2.733421   -0.376671
     20          6           0        0.666484   -1.375615   -2.334398
     21          1           0       -1.271608   -0.646666   -2.857873
     22          6           0        0.674435   -2.868521   -0.434129
     23          1           0       -1.264942   -3.219624    0.394805
     24          6           0        1.425209   -2.101494   -1.367392
     25          1           0        1.155168   -0.827649   -3.128955
     26          1           0        1.157135   -3.475576    0.318536
     27          7           0        2.752440   -2.074181   -1.339778
     28          6           0        3.487771   -2.576737   -0.168062
     29          1           0        3.344577   -3.655183   -0.055059
     30          1           0        3.117111   -2.042180    0.718052
     31          6           0        3.524282   -1.036681   -2.045396
     32          1           0        3.784870   -1.386156   -3.052264
     33          1           0        2.930672   -0.121292   -2.093865
     34          7           0       -1.418823   -0.252223    0.964990
     35         16           0       -1.433017   -1.120385    2.346152
     36          8           0       -2.667205   -1.908563    2.345148
     37          8           0       -0.160278   -1.828915    2.481584
     38          6           0       -0.528833    2.672179   -0.070091
     39          6           0       -0.043351    2.073497   -1.240913
     40          6           0       -0.777448    2.151761   -2.424152
     41          6           0       -2.009673    2.804428   -2.460155
     42          6           0       -2.504757    3.389277   -1.296125
     43          6           0       -1.764879    3.323514   -0.115804
     44          1           0        0.885853    1.507009   -1.180812
     45          1           0       -0.378479    1.701773   -3.331208
     46          1           0       -2.575756    2.863084   -3.385689
     47          1           0       -3.464220    3.899032   -1.307184
     48          1           0       -2.157027    3.785069    0.788353
     49          8           0        0.694011    1.381321    1.666632
     50          1           0       -0.522209    0.238078    0.816405
     51          6           0        2.038225    0.749317    1.172859
     52          8           0        1.869665    0.186093    0.024232
     53          8           0        2.276960   -0.138218    2.247688
     54          1           0        1.576358   -0.812004    2.181240
     55          6           0        3.134066    1.830510    1.276239
     56          1           0        2.918653    2.506979    2.113256
     57          1           0        4.055911    1.300603    1.549482
     58          6           0        0.258376    2.640478    1.236837
     59          1           0       -0.401081    3.036215    2.024170
     60          1           0        1.098208    3.346368    1.165438
     61          6           0       -1.468187    0.092684    3.645998
     62          1           0       -0.580441    0.714373    3.493187
     63          1           0       -2.388935    0.670760    3.554576
     64          1           0       -1.427553   -0.435638    4.599870
     65          6           0        3.379567    2.610548   -0.013212
     66          1           0        3.660908    1.904545   -0.802861
     67          1           0        2.456945    3.084915   -0.368215
     68          6           0        4.463113    3.672414    0.159558
     69          1           0        4.658799    4.209899   -0.773522
     70          1           0        4.170080    4.409628    0.915517
     71          1           0        5.403963    3.220058    0.492604
     72          6           0        4.930575   -2.191982   -0.472887
     73          1           0        5.535743   -2.138335    0.433970
     74          1           0        5.384780   -2.920363   -1.154114
     75          6           0        4.755093   -0.836728   -1.158919
     76          1           0        4.502799   -0.085715   -0.405017
     77          1           0        5.630419   -0.510762   -1.724852
 ---------------------------------------------------------------------
 Rotational constants (GHZ):           0.1515639           0.0986019           0.0892411
 Leave Link  202 at Thu Feb  7 10:25:45 2019, MaxMem=   104857600 cpu:               2.4 elap:               0.1
 (Enter /home/xinyan/g16/l301.exe)
 Standard basis: 6-31G(d) (6D, 7F)
 Ernie: Thresh=  0.10000D-02 Tol=  0.10000D-05 Strict=F.
 There are   626 symmetry adapted cartesian basis functions of A   symmetry.
 There are   626 symmetry adapted basis functions of A   symmetry.
   626 basis functions,  1196 primitive gaussians,   626 cartesian basis functions
   140 alpha electrons      140 beta electrons
       nuclear repulsion energy      4957.7910343136 Hartrees.
 IExCor= 4336 DFT=T Ex+Corr=M062X ExCW=0 ScaHFX=  0.540000
 ScaDFX=  1.000000  1.000000  1.000000  1.000000 ScalE2=  1.000000  1.000000
 IRadAn=      5 IRanWt=     -1 IRanGd=            0 ICorTp=0 IEmpDi=131
 NAtoms=   77 NActive=   77 NUniq=   77 SFac= 1.00D+00 NAtFMM=   60 NAOKFM=T Big=T
 Integral buffers will be    131072 words long.
 Raffenetti 2 integral format.
 Two-electron integral symmetry is turned on.
 R6Disp:  Grimme-D3 Dispersion energy=       -0.0107080981 Hartrees.
 Nuclear repulsion after empirical dispersion term =     4957.7803262154 Hartrees.
 Leave Link  301 at Thu Feb  7 10:25:45 2019, MaxMem=   104857600 cpu:               3.0 elap:               0.2
 (Enter /home/xinyan/g16/l302.exe)
 NPDir=0 NMtPBC=     1 NCelOv=     1 NCel=       1 NClECP=     1 NCelD=      1
         NCelK=      1 NCelE2=     1 NClLst=     1 CellRange=     0.0.
 One-electron integrals computed using PRISM.
 One-electron integral symmetry used in STVInt
 PrsmSu:  requested number of processors reduced to:  23 ShMem   1 Linda.
 NBasis=   626 RedAO= T EigKep=  4.37D-04  NBF=   626
 NBsUse=   626 1.00D-06 EigRej= -1.00D+00 NBFU=   626
 Precomputing XC quadrature grid using
 IXCGrd= 4 IRadAn=           5 IRanWt=          -1 IRanGd=           0 AccXCQ= 0.00D+00.
 Generated NRdTot=       0 NPtTot=           0 NUsed=           0 NTot=          32
 NSgBfM=   615   614   614   615   615 MxSgAt=    77 MxSgA2=    77.
 Leave Link  302 at Thu Feb  7 10:25:49 2019, MaxMem=   104857600 cpu:              87.4 elap:               3.8
 (Enter /home/xinyan/g16/l303.exe)
 DipDrv:  MaxL=1.
 Leave Link  303 at Thu Feb  7 10:25:50 2019, MaxMem=   104857600 cpu:               6.3 elap:               0.3
 (Enter /home/xinyan/g16/l401.exe)
 ExpMin= 1.17D-01 ExpMax= 2.19D+04 ExpMxC= 3.30D+03 IAcc=3 IRadAn=         5 AccDes= 0.00D+00
 Harris functional with IExCor= 1009 and IRadAn=       5 diagonalized for initial guess.
 HarFok:  IExCor= 1009 AccDes= 0.00D+00 IRadAn=         5 IDoV= 1 UseB2=F ITyADJ=14
 ICtDFT=  3500011 ScaDFX=  1.000000  1.000000  1.000000  1.000000
 FoFCou: FMM=F IPFlag=           0 FMFlag=      100000 FMFlg1=        2001
         NFxFlg=           0 DoJE=T BraDBF=F KetDBF=T FulRan=T
         wScrn=  0.000000 ICntrl=       500 IOpCl=  0 I1Cent=   200000004 NGrid=           0
         NMat0=    1 NMatS0=      1 NMatT0=    0 NMatD0=    1 NMtDS0=    0 NMtDT0=    0
 Petite list used in FoFCou.
 Harris En= -1990.53569138084    
 JPrj=0 DoOrth=F DoCkMO=F.
 Leave Link  401 at Thu Feb  7 10:25:54 2019, MaxMem=   104857600 cpu:              98.8 elap:               4.2
 (Enter /home/xinyan/g16/l502.exe)
 Integral symmetry usage will be decided dynamically.
 Closed shell SCF:
 Using DIIS extrapolation, IDIIS=  1040.
 NGot=   104857600 LenX=   104051656 LenY=   103659154
 Requested convergence on RMS density matrix=1.00D-08 within 128 cycles.
 Requested convergence on MAX density matrix=1.00D-06.
 Requested convergence on             energy=1.00D-06.
 No special actions if energy rises.
 Fock matrices will be formed incrementally for  20 cycles.
 Integral accuracy reduced to 1.0D-05 until final iterations.

 Cycle   1  Pass 0  IDiag  1:
 FoFJK:  IHMeth= 1 ICntrl=       0 DoSepK=F KAlg= 0 I1Cent=           0 FoldK=F
 IRaf= 990000000 NMat=       1 IRICut=       1 DoRegI=T DoRafI=F ISym2E= 0 IDoP0=0 IntGTp=1.
 FoFCou: FMM=T IPFlag=           0 FMFlag=      100000 FMFlg1=        2001
         NFxFlg=           0 DoJE=F BraDBF=F KetDBF=F FulRan=T
         wScrn=  0.000000 ICntrl=         0 IOpCl=  0 I1Cent=           0 NGrid=           0
         NMat0=    1 NMatS0=      1 NMatT0=    0 NMatD0=    1 NMtDS0=    0 NMtDT0=    0
 Symmetry not used in FoFCou.
 FMM levels:  10  Number of levels for PrismC:   9
 E= -1990.28736194302    
 DIIS: error= 2.56D-02 at cycle   1 NSaved=   1.
 NSaved= 1 IEnMin= 1 EnMin= -1990.28736194302     IErMin= 1 ErrMin= 2.56D-02
 ErrMax= 2.56D-02  0.00D+00 EMaxC= 1.00D-01 BMatC= 1.25D+00 BMatP= 1.25D+00
 IDIUse=3 WtCom= 7.44D-01 WtEn= 2.56D-01
 Coeff-Com:  0.100D+01
 Coeff-En:   0.100D+01
 Coeff:      0.100D+01
 Gap=     0.358 Goal=   None    Shift=    0.000
 GapD=    0.358 DampG=1.000 DampE=0.500 DampFc=0.5000 IDamp=-1.
 Damping current iteration by 5.00D-01
 RMSDP=3.49D-03 MaxDP=3.47D-01              OVMax= 1.98D-01

 Cycle   2  Pass 0  IDiag  1:
 RMSU=  1.74D-03    CP:  9.89D-01
 E= -1990.80283771543     Delta-E=       -0.515475772419 Rises=F Damp=T
 DIIS: error= 8.09D-03 at cycle   2 NSaved=   2.
 NSaved= 2 IEnMin= 2 EnMin= -1990.80283771543     IErMin= 2 ErrMin= 8.09D-03
 ErrMax= 8.09D-03  0.00D+00 EMaxC= 1.00D-01 BMatC= 9.39D-02 BMatP= 1.25D+00
 IDIUse=3 WtCom= 9.19D-01 WtEn= 8.09D-02
 Coeff-Com: -0.247D-01 0.102D+01
 Coeff-En:   0.000D+00 0.100D+01
 Coeff:     -0.227D-01 0.102D+01
 Gap=     0.259 Goal=   None    Shift=    0.000
 RMSDP=8.72D-04 MaxDP=7.78D-02 DE=-5.15D-01 OVMax= 1.29D-01

 Cycle   3  Pass 0  IDiag  1:
 RMSU=  8.59D-04    CP:  9.82D-01  9.33D-01
 E= -1991.31278491078     Delta-E=       -0.509947195347 Rises=F Damp=F
 DIIS: error= 8.57D-03 at cycle   3 NSaved=   3.
 NSaved= 3 IEnMin= 3 EnMin= -1991.31278491078     IErMin= 2 ErrMin= 8.09D-03
 ErrMax= 8.57D-03  0.00D+00 EMaxC= 1.00D-01 BMatC= 5.17D-02 BMatP= 9.39D-02
 IDIUse=3 WtCom= 9.14D-01 WtEn= 8.57D-02
 Coeff-Com: -0.700D-01 0.444D+00 0.626D+00
 Coeff-En:   0.000D+00 0.000D+00 0.100D+01
 Coeff:     -0.640D-01 0.406D+00 0.658D+00
 Gap=     0.230 Goal=   None    Shift=    0.000
 RMSDP=5.27D-04 MaxDP=3.71D-02 DE=-5.10D-01 OVMax= 6.38D-02

 Cycle   4  Pass 0  IDiag  1:
 RMSU=  3.43D-04    CP:  9.85D-01  1.04D+00  5.94D-01
 E= -1991.34414676237     Delta-E=       -0.031361851587 Rises=F Damp=F
 DIIS: error= 4.11D-03 at cycle   4 NSaved=   4.
 NSaved= 4 IEnMin= 4 EnMin= -1991.34414676237     IErMin= 4 ErrMin= 4.11D-03
 ErrMax= 4.11D-03  0.00D+00 EMaxC= 1.00D-01 BMatC= 1.31D-02 BMatP= 5.17D-02
 IDIUse=3 WtCom= 9.59D-01 WtEn= 4.11D-02
 Coeff-Com: -0.270D-01 0.889D-01 0.362D+00 0.576D+00
 Coeff-En:   0.000D+00 0.000D+00 0.217D+00 0.783D+00
 Coeff:     -0.259D-01 0.852D-01 0.356D+00 0.585D+00
 Gap=     0.226 Goal=   None    Shift=    0.000
 RMSDP=2.14D-04 MaxDP=1.20D-02 DE=-3.14D-02 OVMax= 3.37D-02

 Cycle   5  Pass 0  IDiag  1:
 RMSU=  8.71D-05    CP:  9.84D-01  1.03D+00  7.31D-01  5.56D-01
 E= -1991.35507499268     Delta-E=       -0.010928230315 Rises=F Damp=F
 DIIS: error= 1.04D-03 at cycle   5 NSaved=   5.
 NSaved= 5 IEnMin= 5 EnMin= -1991.35507499268     IErMin= 5 ErrMin= 1.04D-03
 ErrMax= 1.04D-03  0.00D+00 EMaxC= 1.00D-01 BMatC= 6.12D-04 BMatP= 1.31D-02
 IDIUse=3 WtCom= 9.90D-01 WtEn= 1.04D-02
 Coeff-Com: -0.888D-02 0.207D-01 0.138D+00 0.287D+00 0.563D+00
 Coeff-En:   0.000D+00 0.000D+00 0.000D+00 0.000D+00 0.100D+01
 Coeff:     -0.879D-02 0.205D-01 0.137D+00 0.284D+00 0.568D+00
 Gap=     0.226 Goal=   None    Shift=    0.000
 RMSDP=5.16D-05 MaxDP=3.84D-03 DE=-1.09D-02 OVMax= 9.85D-03

 Cycle   6  Pass 0  IDiag  1:
 RMSU=  2.75D-05    CP:  9.84D-01  1.03D+00  7.29D-01  6.28D-01  5.89D-01
 E= -1991.35560645858     Delta-E=       -0.000531465899 Rises=F Damp=F
 DIIS: error= 3.31D-04 at cycle   6 NSaved=   6.
 NSaved= 6 IEnMin= 6 EnMin= -1991.35560645858     IErMin= 6 ErrMin= 3.31D-04
 ErrMax= 3.31D-04  0.00D+00 EMaxC= 1.00D-01 BMatC= 6.07D-05 BMatP= 6.12D-04
 IDIUse=3 WtCom= 9.97D-01 WtEn= 3.31D-03
 Coeff-Com: -0.163D-02 0.145D-02 0.305D-01 0.811D-01 0.291D+00 0.598D+00
 Coeff-En:   0.000D+00 0.000D+00 0.000D+00 0.000D+00 0.434D-02 0.996D+00
 Coeff:     -0.163D-02 0.145D-02 0.304D-01 0.809D-01 0.290D+00 0.599D+00
 Gap=     0.227 Goal=   None    Shift=    0.000
 RMSDP=1.51D-05 MaxDP=8.81D-04 DE=-5.31D-04 OVMax= 2.56D-03

 Cycle   7  Pass 0  IDiag  1:
 RMSU=  9.41D-06    CP:  9.84D-01  1.03D+00  7.32D-01  6.29D-01  6.74D-01
                    CP:  6.80D-01
 E= -1991.35566446853     Delta-E=       -0.000058009943 Rises=F Damp=F
 DIIS: error= 4.30D-05 at cycle   7 NSaved=   7.
 NSaved= 7 IEnMin= 7 EnMin= -1991.35566446853     IErMin= 7 ErrMin= 4.30D-05
 ErrMax= 4.30D-05  0.00D+00 EMaxC= 1.00D-01 BMatC= 3.71D-06 BMatP= 6.07D-05
 IDIUse=1 WtCom= 1.00D+00 WtEn= 0.00D+00
 Coeff-Com:  0.197D-03-0.139D-02-0.157D-02 0.487D-02 0.690D-01 0.249D+00
 Coeff-Com:  0.680D+00
 Coeff:      0.197D-03-0.139D-02-0.157D-02 0.487D-02 0.690D-01 0.249D+00
 Coeff:      0.680D+00
 Gap=     0.227 Goal=   None    Shift=    0.000
 RMSDP=4.41D-06 MaxDP=2.33D-04 DE=-5.80D-05 OVMax= 5.71D-04

 Initial convergence to 1.0D-05 achieved.  Increase integral accuracy.
 Cycle   8  Pass 1  IDiag  1:
 E= -1991.35571370152     Delta-E=       -0.000049232998 Rises=F Damp=F
 DIIS: error= 1.99D-04 at cycle   1 NSaved=   1.
 NSaved= 1 IEnMin= 1 EnMin= -1991.35571370152     IErMin= 1 ErrMin= 1.99D-04
 ErrMax= 1.99D-04  0.00D+00 EMaxC= 1.00D-01 BMatC= 1.34D-05 BMatP= 1.34D-05
 IDIUse=3 WtCom= 9.98D-01 WtEn= 1.99D-03
 Coeff-Com:  0.100D+01
 Coeff-En:   0.100D+01
 Coeff:      0.100D+01
 Gap=     0.227 Goal=   None    Shift=    0.000
 RMSDP=4.41D-06 MaxDP=2.33D-04 DE=-4.92D-05 OVMax= 4.62D-04

 Cycle   9  Pass 1  IDiag  1:
 RMSU=  7.45D-05    CP:  1.00D+00
 E= -1991.35572590321     Delta-E=       -0.000012201690 Rises=F Damp=F
 DIIS: error= 1.87D-05 at cycle   2 NSaved=   2.
 NSaved= 2 IEnMin= 2 EnMin= -1991.35572590321     IErMin= 2 ErrMin= 1.87D-05
 ErrMax= 1.87D-05  0.00D+00 EMaxC= 1.00D-01 BMatC= 6.82D-07 BMatP= 1.34D-05
 IDIUse=1 WtCom= 1.00D+00 WtEn= 0.00D+00
 Coeff-Com:  0.572D-01 0.943D+00
 Coeff:      0.572D-01 0.943D+00
 Gap=     0.227 Goal=   None    Shift=    0.000
 RMSDP=3.76D-06 MaxDP=1.99D-04 DE=-1.22D-05 OVMax= 3.74D-04

 Cycle  10  Pass 1  IDiag  1:
 RMSU=  3.06D-06    CP:  1.00D+00  1.03D+00
 E= -1991.35572562080     Delta-E=        0.000000282414 Rises=F Damp=F
 DIIS: error= 3.30D-05 at cycle   3 NSaved=   3.
 NSaved= 3 IEnMin= 2 EnMin= -1991.35572590321     IErMin= 2 ErrMin= 1.87D-05
 ErrMax= 3.30D-05  0.00D+00 EMaxC= 1.00D-01 BMatC= 1.05D-06 BMatP= 6.82D-07
 IDIUse=1 WtCom= 1.00D+00 WtEn= 0.00D+00
 Coeff-Com: -0.145D-01 0.560D+00 0.455D+00
 Coeff:     -0.145D-01 0.560D+00 0.455D+00
 Gap=     0.227 Goal=   None    Shift=    0.000
 RMSDP=1.69D-06 MaxDP=1.21D-04 DE= 2.82D-07 OVMax= 2.27D-04

 Cycle  11  Pass 1  IDiag  1:
 RMSU=  6.52D-07    CP:  1.00D+00  1.03D+00  5.00D-01
 E= -1991.35572651133     Delta-E=       -0.000000890530 Rises=F Damp=F
 DIIS: error= 4.41D-06 at cycle   4 NSaved=   4.
 NSaved= 4 IEnMin= 4 EnMin= -1991.35572651133     IErMin= 4 ErrMin= 4.41D-06
 ErrMax= 4.41D-06  0.00D+00 EMaxC= 1.00D-01 BMatC= 1.20D-08 BMatP= 6.82D-07
 IDIUse=1 WtCom= 1.00D+00 WtEn= 0.00D+00
 Coeff-Com: -0.808D-02 0.255D+00 0.220D+00 0.533D+00
 Coeff:     -0.808D-02 0.255D+00 0.220D+00 0.533D+00
 Gap=     0.227 Goal=   None    Shift=    0.000
 RMSDP=2.29D-07 MaxDP=1.29D-05 DE=-8.91D-07 OVMax= 4.26D-05

 Cycle  12  Pass 1  IDiag  1:
 RMSU=  2.02D-07    CP:  1.00D+00  1.03D+00  5.21D-01  8.70D-01
 E= -1991.35572652277     Delta-E=       -0.000000011443 Rises=F Damp=F
 DIIS: error= 1.57D-06 at cycle   5 NSaved=   5.
 NSaved= 5 IEnMin= 5 EnMin= -1991.35572652277     IErMin= 5 ErrMin= 1.57D-06
 ErrMax= 1.57D-06  0.00D+00 EMaxC= 1.00D-01 BMatC= 1.03D-09 BMatP= 1.20D-08
 IDIUse=1 WtCom= 1.00D+00 WtEn= 0.00D+00
 Coeff-Com: -0.762D-03 0.841D-02 0.974D-02 0.209D+00 0.774D+00
 Coeff:     -0.762D-03 0.841D-02 0.974D-02 0.209D+00 0.774D+00
 Gap=     0.227 Goal=   None    Shift=    0.000
 RMSDP=9.30D-08 MaxDP=4.15D-06 DE=-1.14D-08 OVMax= 1.40D-05

 Cycle  13  Pass 1  IDiag  1:
 RMSU=  7.05D-08    CP:  1.00D+00  1.03D+00  5.24D-01  9.54D-01  9.06D-01
 E= -1991.35572652387     Delta-E=       -0.000000001096 Rises=F Damp=F
 DIIS: error= 4.88D-07 at cycle   6 NSaved=   6.
 NSaved= 6 IEnMin= 6 EnMin= -1991.35572652387     IErMin= 6 ErrMin= 4.88D-07
 ErrMax= 4.88D-07  0.00D+00 EMaxC= 1.00D-01 BMatC= 2.54D-10 BMatP= 1.03D-09
 IDIUse=1 WtCom= 1.00D+00 WtEn= 0.00D+00
 Coeff-Com:  0.880D-03-0.361D-01-0.302D-01 0.366D-01 0.417D+00 0.612D+00
 Coeff:      0.880D-03-0.361D-01-0.302D-01 0.366D-01 0.417D+00 0.612D+00
 Gap=     0.227 Goal=   None    Shift=    0.000
 RMSDP=3.86D-08 MaxDP=1.85D-06 DE=-1.10D-09 OVMax= 6.91D-06

 Cycle  14  Pass 1  IDiag  1:
 RMSU=  2.87D-08    CP:  1.00D+00  1.03D+00  5.25D-01  9.75D-01  9.90D-01
                    CP:  8.19D-01
 E= -1991.35572652409     Delta-E=       -0.000000000223 Rises=F Damp=F
 DIIS: error= 1.64D-07 at cycle   7 NSaved=   7.
 NSaved= 7 IEnMin= 7 EnMin= -1991.35572652409     IErMin= 7 ErrMin= 1.64D-07
 ErrMax= 1.64D-07  0.00D+00 EMaxC= 1.00D-01 BMatC= 2.06D-11 BMatP= 2.54D-10
 IDIUse=1 WtCom= 1.00D+00 WtEn= 0.00D+00
 Coeff-Com:  0.451D-03-0.163D-01-0.142D-01-0.124D-02 0.103D+00 0.272D+00
 Coeff-Com:  0.657D+00
 Coeff:      0.451D-03-0.163D-01-0.142D-01-0.124D-02 0.103D+00 0.272D+00
 Coeff:      0.657D+00
 Gap=     0.227 Goal=   None    Shift=    0.000
 RMSDP=1.16D-08 MaxDP=6.30D-07 DE=-2.23D-10 OVMax= 1.99D-06

 Cycle  15  Pass 1  IDiag  1:
 RMSU=  8.58D-09    CP:  1.00D+00  1.03D+00  5.25D-01  9.81D-01  9.96D-01
                    CP:  9.11D-01  1.02D+00
 E= -1991.35572652408     Delta-E=        0.000000000016 Rises=F Damp=F
 DIIS: error= 4.60D-08 at cycle   8 NSaved=   8.
 NSaved= 8 IEnMin= 7 EnMin= -1991.35572652409     IErMin= 8 ErrMin= 4.60D-08
 ErrMax= 4.60D-08  0.00D+00 EMaxC= 1.00D-01 BMatC= 2.33D-12 BMatP= 2.06D-11
 IDIUse=1 WtCom= 1.00D+00 WtEn= 0.00D+00
 Coeff-Com: -0.207D-05 0.916D-03 0.355D-03-0.662D-02-0.484D-01-0.125D-01
 Coeff-Com:  0.235D+00 0.831D+00
 Coeff:     -0.207D-05 0.916D-03 0.355D-03-0.662D-02-0.484D-01-0.125D-01
 Coeff:      0.235D+00 0.831D+00
 Gap=     0.227 Goal=   None    Shift=    0.000
 RMSDP=5.18D-09 MaxDP=2.67D-07 DE= 1.64D-11 OVMax= 9.28D-07

 SCF Done:  E(RM062X) =  -1991.35572652     A.U. after   15 cycles
            NFock= 15  Conv=0.52D-08     -V/T= 2.0076
 KE= 1.976415002485D+03 PE=-1.456773474250D+04 EE= 5.642183687273D+03
 Leave Link  502 at Thu Feb  7 10:28:36 2019, MaxMem=   104857600 cpu:            3884.7 elap:             162.2
 (Enter /home/xinyan/g16/l601.exe)
 Copying SCF densities to generalized density rwf, IOpCl= 0 IROHF=0.

 **********************************************************************

            Population analysis using the SCF density.

 **********************************************************************

 Orbital symmetries:
       Occupied  (A) (A) (A) (A) (A) (A) (A) (A) (A) (A) (A) (A)
                 (A) (A) (A) (A) (A) (A) (A) (A) (A) (A) (A) (A)
                 (A) (A) (A) (A) (A) (A) (A) (A) (A) (A) (A) (A)
                 (A) (A) (A) (A) (A) (A) (A) (A) (A) (A) (A) (A)
                 (A) (A) (A) (A) (A) (A) (A) (A) (A) (A) (A) (A)
                 (A) (A) (A) (A) (A) (A) (A) (A) (A) (A) (A) (A)
                 (A) (A) (A) (A) (A) (A) (A) (A) (A) (A) (A) (A)
                 (A) (A) (A) (A) (A) (A) (A) (A) (A) (A) (A) (A)
                 (A) (A) (A) (A) (A) (A) (A) (A) (A) (A) (A) (A)
                 (A) (A) (A) (A) (A) (A) (A) (A) (A) (A) (A) (A)
                 (A) (A) (A) (A) (A) (A) (A) (A) (A) (A) (A) (A)
                 (A) (A) (A) (A) (A) (A) (A) (A)
       Virtual   (A) (A) (A) (A) (A) (A) (A) (A) (A) (A) (A) (A)
                 (A) (A) (A) (A) (A) (A) (A) (A) (A) (A) (A) (A)
                 (A) (A) (A) (A) (A) (A) (A) (A) (A) (A) (A) (A)
                 (A) (A) (A) (A) (A) (A) (A) (A) (A) (A) (A) (A)
                 (A) (A) (A) (A) (A) (A) (A) (A) (A) (A) (A) (A)
                 (A) (A) (A) (A) (A) (A) (A) (A) (A) (A) (A) (A)
                 (A) (A) (A) (A) (A) (A) (A) (A) (A) (A) (A) (A)
                 (A) (A) (A) (A) (A) (A) (A) (A) (A) (A) (A) (A)
                 (A) (A) (A) (A) (A) (A) (A) (A) (A) (A) (A) (A)
                 (A) (A) (A) (A) (A) (A) (A) (A) (A) (A) (A) (A)
                 (A) (A) (A) (A) (A) (A) (A) (A) (A) (A) (A) (A)
                 (A) (A) (A) (A) (A) (A) (A) (A) (A) (A) (A) (A)
                 (A) (A) (A) (A) (A) (A) (A) (A) (A) (A) (A) (A)
                 (A) (A) (A) (A) (A) (A) (A) (A) (A) (A) (A) (A)
                 (A) (A) (A) (A) (A) (A) (A) (A) (A) (A) (A) (A)
                 (A) (A) (A) (A) (A) (A) (A) (A) (A) (A) (A) (A)
                 (A) (A) (A) (A) (A) (A) (A) (A) (A) (A) (A) (A)
                 (A) (A) (A) (A) (A) (A) (A) (A) (A) (A) (A) (A)
                 (A) (A) (A) (A) (A) (A) (A) (A) (A) (A) (A) (A)
                 (A) (A) (A) (A) (A) (A) (A) (A) (A) (A) (A) (A)
                 (A) (A) (A) (A) (A) (A) (A) (A) (A) (A) (A) (A)
                 (A) (A) (A) (A) (A) (A) (A) (A) (A) (A) (A) (A)
                 (A) (A) (A) (A) (A) (A) (A) (A) (A) (A) (A) (A)
                 (A) (A) (A) (A) (A) (A) (A) (A) (A) (A) (A) (A)
                 (A) (A) (A) (A) (A) (A) (A) (A) (A) (A) (A) (A)
                 (A) (A) (A) (A) (A) (A) (A) (A) (A) (A) (A) (A)
                 (A) (A) (A) (A) (A) (A) (A) (A) (A) (A) (A) (A)
                 (A) (A) (A) (A) (A) (A) (A) (A) (A) (A) (A) (A)
                 (A) (A) (A) (A) (A) (A) (A) (A) (A) (A) (A) (A)
                 (A) (A) (A) (A) (A) (A) (A) (A) (A) (A) (A) (A)
                 (A) (A) (A) (A) (A) (A) (A) (A) (A) (A) (A) (A)
                 (A) (A) (A) (A) (A) (A) (A) (A) (A) (A) (A) (A)
                 (A) (A) (A) (A) (A) (A) (A) (A) (A) (A) (A) (A)
                 (A) (A) (A) (A) (A) (A) (A) (A) (A) (A) (A) (A)
                 (A) (A) (A) (A) (A) (A) (A) (A) (A) (A) (A) (A)
                 (A) (A) (A) (A) (A) (A) (A) (A) (A) (A) (A) (A)
                 (A) (A) (A) (A) (A) (A) (A) (A) (A) (A) (A) (A)
                 (A) (A) (A) (A) (A) (A) (A) (A) (A) (A) (A) (A)
                 (A) (A) (A) (A) (A) (A) (A) (A) (A) (A) (A) (A)
                 (A) (A) (A) (A) (A) (A) (A) (A) (A) (A) (A) (A)
                 (A) (A) (A) (A) (A) (A)
 The electronic state is 1-A.
 Alpha  occ. eigenvalues --  -90.14785 -19.62392 -19.62130 -19.58652 -19.56917
 Alpha  occ. eigenvalues --  -19.50520 -14.85192 -14.80035 -14.76625 -10.63157
 Alpha  occ. eigenvalues --  -10.62617 -10.62135 -10.62132 -10.61089 -10.59894
 Alpha  occ. eigenvalues --  -10.57764 -10.57759 -10.57604 -10.57054 -10.56975
 Alpha  occ. eigenvalues --  -10.56900 -10.56341 -10.55883 -10.55116 -10.55095
 Alpha  occ. eigenvalues --  -10.55034 -10.54873 -10.54688 -10.54680 -10.54643
 Alpha  occ. eigenvalues --  -10.54476 -10.54058 -10.53116 -10.51091 -10.50977
 Alpha  occ. eigenvalues --  -10.49517  -8.45753  -6.37981  -6.37932  -6.37799
 Alpha  occ. eigenvalues --   -1.22568  -1.13471  -1.12879  -1.10777  -1.08877
 Alpha  occ. eigenvalues --   -1.05914  -1.02491  -0.99799  -0.95845  -0.95219
 Alpha  occ. eigenvalues --   -0.93478  -0.90129  -0.88574  -0.86546  -0.85336
 Alpha  occ. eigenvalues --   -0.84950  -0.84859  -0.83704  -0.83302  -0.83080
 Alpha  occ. eigenvalues --   -0.76573  -0.75951  -0.75558  -0.74285  -0.73281
 Alpha  occ. eigenvalues --   -0.71769  -0.68232  -0.68153  -0.67754  -0.67495
 Alpha  occ. eigenvalues --   -0.66446  -0.65495  -0.64867  -0.63348  -0.60505
 Alpha  occ. eigenvalues --   -0.60382  -0.59958  -0.59440  -0.57927  -0.57692
 Alpha  occ. eigenvalues --   -0.57160  -0.56409  -0.55694  -0.55112  -0.54384
 Alpha  occ. eigenvalues --   -0.53567  -0.53088  -0.52687  -0.52487  -0.52173
 Alpha  occ. eigenvalues --   -0.51695  -0.50797  -0.50148  -0.49914  -0.49347
 Alpha  occ. eigenvalues --   -0.49238  -0.48961  -0.48473  -0.48172  -0.48002
 Alpha  occ. eigenvalues --   -0.47737  -0.47627  -0.47168  -0.46147  -0.45801
 Alpha  occ. eigenvalues --   -0.45244  -0.45154  -0.44385  -0.43968  -0.43202
 Alpha  occ. eigenvalues --   -0.42480  -0.42320  -0.41159  -0.40886  -0.40768
 Alpha  occ. eigenvalues --   -0.40675  -0.40404  -0.40102  -0.39833  -0.39397
 Alpha  occ. eigenvalues --   -0.39177  -0.38886  -0.38655  -0.38336  -0.37823
 Alpha  occ. eigenvalues --   -0.37390  -0.36497  -0.36433  -0.36073  -0.35014
 Alpha  occ. eigenvalues --   -0.34519  -0.34277  -0.31748  -0.31367  -0.30020
 Alpha  occ. eigenvalues --   -0.29274  -0.28831  -0.27749  -0.24174  -0.23909
 Alpha virt. eigenvalues --   -0.01230   0.00574   0.03213   0.03551   0.10144
 Alpha virt. eigenvalues --    0.10587   0.11327   0.12561   0.13169   0.13302
 Alpha virt. eigenvalues --    0.14133   0.14438   0.15027   0.15512   0.15549
 Alpha virt. eigenvalues --    0.16203   0.16465   0.16934   0.17316   0.17660
 Alpha virt. eigenvalues --    0.17945   0.18068   0.18180   0.18679   0.19060
 Alpha virt. eigenvalues --    0.19234   0.19422   0.19900   0.20002   0.20213
 Alpha virt. eigenvalues --    0.20459   0.20925   0.21152   0.21296   0.21427
 Alpha virt. eigenvalues --    0.21977   0.22135   0.22546   0.22855   0.23319
 Alpha virt. eigenvalues --    0.23559   0.23985   0.24513   0.24637   0.24792
 Alpha virt. eigenvalues --    0.25164   0.25389   0.25693   0.26114   0.26623
 Alpha virt. eigenvalues --    0.26900   0.27214   0.27946   0.28401   0.28524
 Alpha virt. eigenvalues --    0.28890   0.29347   0.29559   0.30385   0.30845
 Alpha virt. eigenvalues --    0.30942   0.31685   0.31868   0.32137   0.32295
 Alpha virt. eigenvalues --    0.33242   0.33981   0.34965   0.35364   0.35605
 Alpha virt. eigenvalues --    0.36062   0.37242   0.37678   0.37966   0.38943
 Alpha virt. eigenvalues --    0.39661   0.40153   0.40321   0.42271   0.42728
 Alpha virt. eigenvalues --    0.44039   0.44691   0.46570   0.47882   0.49001
 Alpha virt. eigenvalues --    0.49210   0.50930   0.52348   0.53327   0.54445
 Alpha virt. eigenvalues --    0.54896   0.55479   0.55954   0.56785   0.57267
 Alpha virt. eigenvalues --    0.57627   0.57959   0.58636   0.59204   0.59542
 Alpha virt. eigenvalues --    0.59928   0.60163   0.60469   0.60617   0.60936
 Alpha virt. eigenvalues --    0.61373   0.61779   0.62454   0.62487   0.62971
 Alpha virt. eigenvalues --    0.63709   0.63919   0.64393   0.64750   0.65578
 Alpha virt. eigenvalues --    0.66029   0.66129   0.66649   0.67487   0.67909
 Alpha virt. eigenvalues --    0.68159   0.68677   0.69386   0.70014   0.70486
 Alpha virt. eigenvalues --    0.70833   0.71530   0.71927   0.72962   0.73140
 Alpha virt. eigenvalues --    0.73543   0.74402   0.74690   0.75126   0.75882
 Alpha virt. eigenvalues --    0.76642   0.77330   0.77553   0.77841   0.78845
 Alpha virt. eigenvalues --    0.79120   0.79669   0.79839   0.80163   0.80961
 Alpha virt. eigenvalues --    0.81220   0.81689   0.83003   0.83565   0.84229
 Alpha virt. eigenvalues --    0.84506   0.85150   0.85241   0.85449   0.86325
 Alpha virt. eigenvalues --    0.87568   0.88382   0.88808   0.89277   0.89653
 Alpha virt. eigenvalues --    0.89970   0.90101   0.90343   0.90845   0.91346
 Alpha virt. eigenvalues --    0.91740   0.92104   0.92394   0.92738   0.93379
 Alpha virt. eigenvalues --    0.93528   0.93987   0.94332   0.94796   0.95061
 Alpha virt. eigenvalues --    0.95379   0.95537   0.96348   0.96681   0.96808
 Alpha virt. eigenvalues --    0.96905   0.97516   0.97867   0.97991   0.98687
 Alpha virt. eigenvalues --    0.98946   0.99412   0.99702   0.99762   1.00694
 Alpha virt. eigenvalues --    1.01049   1.01340   1.02051   1.02497   1.02697
 Alpha virt. eigenvalues --    1.02909   1.03754   1.04242   1.04484   1.05279
 Alpha virt. eigenvalues --    1.06143   1.06547   1.07414   1.08242   1.08632
 Alpha virt. eigenvalues --    1.09514   1.09835   1.10564   1.11426   1.11801
 Alpha virt. eigenvalues --    1.12693   1.13079   1.13505   1.14264   1.15329
 Alpha virt. eigenvalues --    1.16170   1.16985   1.18083   1.18807   1.18928
 Alpha virt. eigenvalues --    1.19621   1.19817   1.20267   1.20978   1.21180
 Alpha virt. eigenvalues --    1.22901   1.23596   1.24308   1.24565   1.25482
 Alpha virt. eigenvalues --    1.25978   1.26498   1.27883   1.28555   1.29887
 Alpha virt. eigenvalues --    1.30653   1.31217   1.32147   1.32338   1.32697
 Alpha virt. eigenvalues --    1.33347   1.34319   1.35175   1.35488   1.36568
 Alpha virt. eigenvalues --    1.37097   1.38239   1.38978   1.40776   1.40907
 Alpha virt. eigenvalues --    1.41487   1.42005   1.44100   1.45536   1.46499
 Alpha virt. eigenvalues --    1.47423   1.47615   1.48799   1.49530   1.50766
 Alpha virt. eigenvalues --    1.51010   1.52143   1.52262   1.52940   1.54123
 Alpha virt. eigenvalues --    1.54518   1.54933   1.55190   1.55726   1.57097
 Alpha virt. eigenvalues --    1.57397   1.58255   1.59306   1.59816   1.60964
 Alpha virt. eigenvalues --    1.62209   1.62740   1.63982   1.64531   1.67020
 Alpha virt. eigenvalues --    1.68809   1.69632   1.69887   1.71988   1.73994
 Alpha virt. eigenvalues --    1.74067   1.74711   1.75729   1.76499   1.76766
 Alpha virt. eigenvalues --    1.78386   1.79102   1.80434   1.81029   1.82390
 Alpha virt. eigenvalues --    1.83474   1.83861   1.84087   1.85422   1.85892
 Alpha virt. eigenvalues --    1.86296   1.86853   1.87598   1.87678   1.88750
 Alpha virt. eigenvalues --    1.89201   1.89490   1.90304   1.90899   1.91050
 Alpha virt. eigenvalues --    1.92427   1.93150   1.93602   1.93823   1.94358
 Alpha virt. eigenvalues --    1.94729   1.95365   1.95889   1.96784   1.97208
 Alpha virt. eigenvalues --    1.97471   1.99101   1.99282   2.00019   2.00641
 Alpha virt. eigenvalues --    2.00960   2.01842   2.02124   2.03048   2.04205
 Alpha virt. eigenvalues --    2.04769   2.05659   2.05809   2.06329   2.06721
 Alpha virt. eigenvalues --    2.07208   2.07548   2.08522   2.09374   2.09569
 Alpha virt. eigenvalues --    2.10078   2.10434   2.10652   2.11492   2.11870
 Alpha virt. eigenvalues --    2.12612   2.13412   2.14495   2.14819   2.15312
 Alpha virt. eigenvalues --    2.16110   2.16512   2.17483   2.18038   2.18334
 Alpha virt. eigenvalues --    2.19327   2.19837   2.20573   2.20892   2.21006
 Alpha virt. eigenvalues --    2.22063   2.22753   2.23056   2.23626   2.23666
 Alpha virt. eigenvalues --    2.24694   2.24876   2.25629   2.26747   2.27522
 Alpha virt. eigenvalues --    2.28071   2.29053   2.29843   2.30675   2.31054
 Alpha virt. eigenvalues --    2.31987   2.33497   2.34629   2.34877   2.35189
 Alpha virt. eigenvalues --    2.35985   2.36993   2.37515   2.38035   2.38239
 Alpha virt. eigenvalues --    2.39748   2.40828   2.41019   2.41341   2.41685
 Alpha virt. eigenvalues --    2.42590   2.44523   2.45768   2.46508   2.47611
 Alpha virt. eigenvalues --    2.49341   2.49827   2.50917   2.51714   2.52542
 Alpha virt. eigenvalues --    2.53385   2.54150   2.56174   2.56975   2.59018
 Alpha virt. eigenvalues --    2.60828   2.61300   2.61633   2.62369   2.63466
 Alpha virt. eigenvalues --    2.63910   2.64891   2.65144   2.67195   2.68295
 Alpha virt. eigenvalues --    2.69060   2.69508   2.70062   2.71481   2.71852
 Alpha virt. eigenvalues --    2.72781   2.74388   2.75699   2.76061   2.77657
 Alpha virt. eigenvalues --    2.78617   2.79285   2.80235   2.81064   2.81344
 Alpha virt. eigenvalues --    2.83373   2.86038   2.86309   2.86572   2.88486
 Alpha virt. eigenvalues --    2.89826   2.91156   2.92994   2.93314   2.96108
 Alpha virt. eigenvalues --    3.00033   3.00485   3.00888   3.05022   3.10249
 Alpha virt. eigenvalues --    3.14359   3.17673   3.24156   3.41616   3.42553
 Alpha virt. eigenvalues --    3.93300   4.00210   4.03650   4.08809   4.12694
 Alpha virt. eigenvalues --    4.13451   4.15189   4.15971   4.17861   4.18894
 Alpha virt. eigenvalues --    4.20433   4.22098   4.23956   4.26160   4.26916
 Alpha virt. eigenvalues --    4.28450   4.30987   4.32609   4.34792   4.35717
 Alpha virt. eigenvalues --    4.38036   4.39639   4.40826   4.43307   4.45530
 Alpha virt. eigenvalues --    4.46117   4.55591   4.58132   4.59185   4.61034
 Alpha virt. eigenvalues --    4.62465   4.65955   4.73238   4.74830   4.76894
 Alpha virt. eigenvalues --    4.78257
          Condensed to atoms (all electrons):
 Mulliken charges:
               1
     1  C   -0.306410
     2  C   -0.307809
     3  C   -0.310932
     4  C   -0.059980
     5  C    0.063918
     6  C   -0.307014
     7  H    0.175574
     8  H    0.163266
     9  H    0.166815
    10  H    0.150992
    11  H    0.165011
    12  H    0.206964
    13  H    0.175013
    14  H    0.193131
    15  H    0.161081
    16  H    0.156216
    17  N   -0.437497
    18  C    0.078246
    19  C    0.078673
    20  C   -0.208335
    21  H    0.203059
    22  C   -0.219988
    23  H    0.243159
    24  C    0.449777
    25  H    0.192036
    26  H    0.209785
    27  N   -0.518561
    28  C   -0.166258
    29  H    0.166870
    30  H    0.222248
    31  C   -0.145974
    32  H    0.160348
    33  H    0.205583
    34  N   -0.807859
    35  S    1.239113
    36  O   -0.603153
    37  O   -0.591222
    38  C    0.050969
    39  C   -0.196064
    40  C   -0.192379
    41  C   -0.172246
    42  C   -0.165476
    43  C   -0.205052
    44  H    0.233011
    45  H    0.141878
    46  H    0.156197
    47  H    0.159770
    48  H    0.154050
    49  O   -0.593016
    50  H    0.448029
    51  C    0.716676
    52  O   -0.695177
    53  O   -0.704735
    54  H    0.431993
    55  C   -0.340665
    56  H    0.143213
    57  H    0.150648
    58  C   -0.082052
    59  H    0.132073
    60  H    0.156416
    61  C   -0.665935
    62  H    0.269076
    63  H    0.200229
    64  H    0.222619
    65  C   -0.285291
    66  H    0.142174
    67  H    0.140135
    68  C   -0.474621
    69  H    0.148017
    70  H    0.149456
    71  H    0.148196
    72  C   -0.333903
    73  H    0.184602
    74  H    0.159895
    75  C   -0.338472
    76  H    0.204740
    77  H    0.165136
 Sum of Mulliken charges =  -0.00000
 Mulliken charges with hydrogens summed into heavy atoms:
               1
     1  C    0.009593
     2  C    0.022272
     3  C    0.020858
     4  C    0.146985
     5  C    0.238931
     6  C    0.047199
    17  N   -0.437497
    18  C    0.281305
    19  C    0.321832
    20  C   -0.016298
    22  C   -0.010204
    24  C    0.449777
    27  N   -0.518561
    28  C    0.222860
    31  C    0.219957
    34  N   -0.359830
    35  S    1.239113
    36  O   -0.603153
    37  O   -0.591222
    38  C    0.050969
    39  C    0.036947
    40  C   -0.050501
    41  C   -0.016050
    42  C   -0.005706
    43  C   -0.051002
    49  O   -0.593016
    51  C    0.716676
    52  O   -0.695177
    53  O   -0.272742
    55  C   -0.046804
    58  C    0.206437
    61  C    0.025989
    65  C   -0.002982
    68  C   -0.028952
    72  C    0.010595
    75  C    0.031404
 Electronic spatial extent (au):  <R**2>=          14614.7842
 Charge=              0.0000 electrons
 Dipole moment (field-independent basis, Debye):
    X=             -3.6195    Y=             -1.6264    Z=             -5.7187  Tot=              6.9605
 Quadrupole moment (field-independent basis, Debye-Ang):
   XX=           -208.6825   YY=           -222.2215   ZZ=           -218.4307
   XY=            -13.3300   XZ=             -4.0914   YZ=             10.7516
 Traceless Quadrupole moment (field-independent basis, Debye-Ang):
   XX=              7.7624   YY=             -5.7766   ZZ=             -1.9858
   XY=            -13.3300   XZ=             -4.0914   YZ=             10.7516
 Octapole moment (field-independent basis, Debye-Ang**2):
  XXX=              2.8267  YYY=            -52.3145  ZZZ=             17.8655  XYY=              4.8610
  XXY=            -24.8435  XXZ=            -41.7368  XZZ=            -24.0028  YZZ=             15.8854
  YYZ=             18.2229  XYZ=            -17.8120
 Hexadecapole moment (field-independent basis, Debye-Ang**3):
 XXXX=         -10048.0629 YYYY=          -5498.3773 ZZZZ=          -3632.2898 XXXY=           -207.1356
 XXXZ=             -2.3850 YYYX=           -106.6118 YYYZ=             42.8146 ZZZX=           -108.4853
 ZZZY=              1.3010 XXYY=          -2606.7876 XXZZ=          -2373.9191 YYZZ=          -1628.7930
 XXYZ=             46.6089 YYXZ=             48.6907 ZZXY=            -55.2753
 N-N= 4.957780326215D+03 E-N=-1.456773471598D+04  KE= 1.976415002485D+03
 No NMR shielding tensors so no spin-rotation constants.
 Leave Link  601 at Thu Feb  7 10:28:37 2019, MaxMem=   104857600 cpu:              28.9 elap:               1.3
 (Enter /home/xinyan/g16/l701.exe)
 ... and contract with generalized density number  0.
 Compute integral first derivatives.
 R6Disp: Adding Grimme-D3 dispersion energy 1st derivatives to the gradient.
 Leave Link  701 at Thu Feb  7 10:28:38 2019, MaxMem=   104857600 cpu:              22.1 elap:               1.0
 (Enter /home/xinyan/g16/l702.exe)
 L702 exits ... SP integral derivatives will be done elsewhere.
 Leave Link  702 at Thu Feb  7 10:28:38 2019, MaxMem=   104857600 cpu:               1.4 elap:               0.1
 (Enter /home/xinyan/g16/l703.exe)
 Integral derivatives from FoFJK, PRISM(SPDF).
 Compute integral first derivatives, UseDBF=F ICtDFT=           0.
 Calling FoFJK, ICntrl=      2127 FMM=T ISym2X=0 I1Cent= 0 IOpClX= 0 NMat=1 NMatS=1 NMatT=0.
 FoFJK:  IHMeth= 1 ICntrl=    2127 DoSepK=F KAlg= 0 I1Cent=           0 FoldK=F
 IRaf=         0 NMat=       1 IRICut=       1 DoRegI=T DoRafI=F ISym2E= 0 IDoP0=0 IntGTp=1.
 FoFCou: FMM=T IPFlag=           0 FMFlag=      100000 FMFlg1=        2001
         NFxFlg=           0 DoJE=F BraDBF=F KetDBF=F FulRan=T
         wScrn=  0.000000 ICntrl=      2127 IOpCl=  0 I1Cent=           0 NGrid=           0
         NMat0=    1 NMatS0=      1 NMatT0=    0 NMatD0=    1 NMtDS0=    0 NMtDT0=    0
 Symmetry not used in FoFCou.
 FMM levels:  10  Number of levels for PrismC:   9
 Leave Link  703 at Thu Feb  7 10:29:13 2019, MaxMem=   104857600 cpu:             815.0 elap:              34.4
 (Enter /home/xinyan/g16/l716.exe)
 Dipole        =-1.42400171D+00-6.39863185D-01-2.24991444D+00
 ***** Axes restored to original set *****
 -------------------------------------------------------------------
 Center     Atomic                   Forces (Hartrees/Bohr)
 Number     Number              X              Y              Z
 -------------------------------------------------------------------
      1        6          -0.000006699   -0.000006587   -0.000020441
      2        6          -0.000010094   -0.000008131   -0.000002734
      3        6           0.000002164   -0.000002911   -0.000006145
      4        6           0.000011363    0.000017274    0.000005941
      5        6          -0.000006399   -0.000032409   -0.000007670
      6        6          -0.000008853   -0.000010324   -0.000021567
      7        1           0.000003864   -0.000014571   -0.000015691
      8        1           0.000006163   -0.000005113   -0.000020722
      9        1          -0.000001418   -0.000012131   -0.000012563
     10        1          -0.000011458   -0.000011881   -0.000012804
     11        1          -0.000007552   -0.000008782   -0.000016141
     12        1          -0.000006173   -0.000000477   -0.000016560
     13        1          -0.000031651   -0.000029049   -0.000040294
     14        1           0.000003410    0.000006389   -0.000019317
     15        1           0.000008513   -0.000002423   -0.000016016
     16        1          -0.000008447   -0.000013896   -0.000010952
     17        7           0.000004449   -0.000010118    0.000014800
     18        6           0.000004363    0.000009099   -0.000015020
     19        6          -0.000010998    0.000009183    0.000000783
     20        6           0.000001939    0.000012697    0.000004029
     21        1           0.000014634    0.000008566   -0.000004026
     22        6          -0.000000099    0.000027219    0.000017845
     23        1           0.000004588   -0.000003008   -0.000008909
     24        6          -0.000003872   -0.000032644   -0.000008322
     25        1           0.000008272    0.000003665    0.000005878
     26        1           0.000007801    0.000005830    0.000003745
     27        7           0.000004792    0.000041872    0.000001699
     28        6          -0.000002629    0.000010594    0.000021947
     29        1           0.000002640    0.000010525    0.000011872
     30        1          -0.000006873    0.000008216    0.000003533
     31        6          -0.000001226   -0.000001406    0.000021198
     32        1          -0.000002951    0.000019594    0.000019870
     33        1           0.000002187    0.000034625    0.000022907
     34        7           0.000029868    0.000096390    0.000010710
     35       16           0.000016081    0.000037947   -0.000058209
     36        8          -0.000040271   -0.000011484    0.000027395
     37        8           0.000011016    0.000003920   -0.000022143
     38        6           0.000022000   -0.000002056    0.000011683
     39        6          -0.000014733    0.000027563   -0.000015053
     40        6          -0.000003309    0.000026020    0.000038785
     41        6          -0.000027733    0.000012089    0.000029297
     42        6          -0.000001371   -0.000015476    0.000058882
     43        6           0.000009469   -0.000018573    0.000025338
     44        1          -0.000005848    0.000012678   -0.000023995
     45        1          -0.000014663    0.000030493    0.000001696
     46        1          -0.000024807    0.000020857    0.000046780
     47        1          -0.000011398   -0.000014654    0.000059511
     48        1           0.000003519   -0.000034364    0.000046754
     49        8          -0.000287232    0.000212219    0.000126670
     50        1           0.000035217   -0.000135609   -0.000102459
     51        6           0.000376284   -0.000157684    0.000052405
     52        8          -0.000132200   -0.000009870   -0.000047112
     53        8           0.000066598    0.000079805    0.000000767
     54        1          -0.000066924   -0.000055685    0.000000133
     55        6          -0.000002531    0.000024479    0.000015405
     56        1           0.000042235   -0.000037763   -0.000052135
     57        1          -0.000058677   -0.000016277   -0.000028285
     58        6          -0.000023593   -0.000016933    0.000007073
     59        1           0.000031308   -0.000020630    0.000019544
     60        1           0.000016199    0.000006938    0.000002602
     61        6           0.000006004    0.000004969   -0.000008282
     62        1           0.000012223    0.000023827    0.000016282
     63        1           0.000008107    0.000016988   -0.000023286
     64        1          -0.000008805    0.000022827   -0.000017546
     65        6           0.000002212   -0.000003719   -0.000011327
     66        1          -0.000040177   -0.000025891   -0.000032442
     67        1          -0.000003433    0.000011052    0.000002121
     68        6           0.000029424   -0.000040083   -0.000029723
     69        1           0.000022593   -0.000041879   -0.000038290
     70        1           0.000057890   -0.000036256   -0.000023956
     71        1           0.000013801   -0.000060206   -0.000053993
     72        6          -0.000003810    0.000008255    0.000016953
     73        1          -0.000004185    0.000012169    0.000018726
     74        1          -0.000001182    0.000020428    0.000017146
     75        6          -0.000016767    0.000001383    0.000023105
     76        1           0.000019607    0.000008304    0.000008169
     77        1          -0.000001757    0.000014007    0.000024147
 -------------------------------------------------------------------
 Cartesian Forces:  Max     0.000376284 RMS     0.000045862
 Z-matrix is all fixed cartesians, so copy forces.
 Leave Link  716 at Thu Feb  7 10:29:13 2019, MaxMem=   104857600 cpu:               2.4 elap:               0.1
 (Enter /home/xinyan/g16/l103.exe)

 GradGradGradGradGradGradGradGradGradGradGradGradGradGradGradGradGradGrad
 Berny optimization.
 Search for a local minimum.
 Step number   1 out of a maximum of    2
 All quantities printed in internal units (Hartrees-Bohrs-Radians)
 Second derivative matrix not updated -- first step.
 ITU=  0
     Eigenvalues ---   -0.00000   0.00000   0.00000   0.00000   0.00000
     Eigenvalues ---    0.00000   0.00004   0.00013   0.00018   0.00023
     Eigenvalues ---    0.00038   0.00038   0.00088   0.00094   0.00114
     Eigenvalues ---    0.00137   0.00138   0.00207   0.00234   0.00289
     Eigenvalues ---    0.00404   0.00413   0.00458   0.00504   0.00588
     Eigenvalues ---    0.00601   0.00628   0.00692   0.00714   0.00838
     Eigenvalues ---    0.00967   0.01091   0.01150   0.01553   0.01637
     Eigenvalues ---    0.01669   0.01835   0.01905   0.02040   0.02132
     Eigenvalues ---    0.02295   0.02321   0.02476   0.02523   0.02863
     Eigenvalues ---    0.02931   0.03051   0.03088   0.03267   0.03523
     Eigenvalues ---    0.03537   0.03816   0.03886   0.04186   0.04291
     Eigenvalues ---    0.04400   0.04792   0.04816   0.04845   0.04935
     Eigenvalues ---    0.05026   0.05062   0.05114   0.05139   0.05160
     Eigenvalues ---    0.05169   0.05255   0.05336   0.05476   0.05582
     Eigenvalues ---    0.05656   0.05675   0.05734   0.05747   0.05815
     Eigenvalues ---    0.05869   0.06160   0.06286   0.06554   0.06703
     Eigenvalues ---    0.06833   0.06844   0.06944   0.06975   0.07107
     Eigenvalues ---    0.07141   0.07238   0.07272   0.07335   0.07378
     Eigenvalues ---    0.07621   0.07852   0.07903   0.07955   0.08125
     Eigenvalues ---    0.08528   0.08595   0.08993   0.09089   0.09681
     Eigenvalues ---    0.09739   0.10184   0.10541   0.11283   0.11544
     Eigenvalues ---    0.11765   0.12218   0.12699   0.12780   0.12855
     Eigenvalues ---    0.12940   0.12992   0.13354   0.13707   0.13849
     Eigenvalues ---    0.14045   0.14505   0.14638   0.15389   0.16042
     Eigenvalues ---    0.16067   0.16577   0.16680   0.16968   0.17066
     Eigenvalues ---    0.17300   0.17557   0.17848   0.17994   0.19580
     Eigenvalues ---    0.19712   0.20320   0.20712   0.21459   0.21646
     Eigenvalues ---    0.23301   0.23561   0.24191   0.24818   0.26371
     Eigenvalues ---    0.27462   0.28419   0.29541   0.30056   0.31159
     Eigenvalues ---    0.31479   0.32388   0.33720   0.34686   0.35943
     Eigenvalues ---    0.36349   0.39393   0.40276   0.40765   0.43364
     Eigenvalues ---    0.43682   0.44480   0.48003   0.49323   0.50233
     Eigenvalues ---    0.53027   0.56728   0.56913   0.59225   0.64322
     Eigenvalues ---    0.65305   0.65537   0.67041   0.68161   0.68849
     Eigenvalues ---    0.70455   0.77126   0.77899   0.78660   0.81795
     Eigenvalues ---    0.82913   0.83361   0.84103   0.86273   0.87490
     Eigenvalues ---    0.88440   0.88720   0.90677   0.91373   0.92453
     Eigenvalues ---    0.94453   0.94839   0.94993   0.95843   0.96556
     Eigenvalues ---    0.98049   0.98138   0.99710   1.00356   1.00502
     Eigenvalues ---    1.00955   1.04137   1.04393   1.04796   1.06187
     Eigenvalues ---    1.06477   1.06800   1.07022   1.08807   1.09377
     Eigenvalues ---    1.14251   1.15351   1.15995   1.18082   1.19641
     Eigenvalues ---    1.21495   1.23792   1.26966   1.28583   1.37027
     Eigenvalues ---    1.47398   1.53347   1.58347   1.59024   1.59583
     Eigenvalues ---    1.67495   1.69526   1.73115   1.84283   2.36924
 Eigenvalue     1 is  -2.22D-16 should be greater than     0.000000 Eigenvector:
                          Y46       Y47       Y41       Y42       Y45
   1                    0.13431   0.13431   0.13431   0.13431   0.13431
                          Y40       Y43       Y48       Y39       Y38
   1                    0.13431   0.13431   0.13431   0.13431   0.13431
 Eigenvalue     2 is   2.87D-08 Eigenvector:
                          Y46       Y47       X54       Y41       Y42
   1                    0.26378   0.24976  -0.22729   0.21902   0.21113
                          X53       Y45       Y40       X52       X51
   1                   -0.20102   0.17460   0.16891  -0.16292  -0.15358
 Eigenvalue     3 is   6.05D-08 Eigenvector:
                          X46       Z47       X45       X41       Z46
   1                    0.20673  -0.19895   0.19507   0.16835  -0.16583
                          Z42       X40       Z71       Z48       Z41
   1                   -0.16186   0.16160   0.15896  -0.14717  -0.14342
 Eigenvalue     4 is   1.55D-07 Eigenvector:
                          Z54       Z53       Z77       Z76       Z52
   1                    0.20450   0.19114  -0.18006  -0.17293   0.17293
                          Z57       Z51       Z75       Y64       Z33
   1                    0.16612   0.15656  -0.15478   0.14681  -0.14659
 Eigenvalue     5 is   2.42D-07 Eigenvector:
                          Y71       Y69       Y68       X70       Y47
   1                    0.18661   0.18010   0.15381  -0.15322  -0.14599
                          Z71       Z47       Y73       Y66       Z69
   1                    0.14471  -0.14401  -0.14146   0.14144   0.13926
 Eigenvalue     6 is   3.04D-07 Eigenvector:
                          Z54       Y45       Y59       Y64       Z70
   1                    0.22453  -0.20968   0.19937  -0.18991  -0.17954
                          Z53       Z69       Y46       Y61       Y48
   1                    0.17171  -0.16861  -0.15466  -0.15314   0.15274
 Eigenvalue     7 is   4.12D-05 Eigenvector:
                          X69       Z70       Z69       X45       X46
   1                    0.23838   0.23079   0.22919  -0.22831  -0.21660
                          X70       Y45       X68       Z68       Z54
   1                    0.21582  -0.19175   0.18999   0.18652  -0.17526
 Quadratic step=2.109D+00 exceeds max=3.000D-01 adjusted using Lamda=-6.777D-04.
 Angle between NR and scaled steps=  15.18 degrees.
 Angle between quadratic step and forces=  68.32 degrees.
 Linear search not attempted -- first point.
 B after Tr=    -0.000680    0.000907    0.001038
         Rot=    1.000000   -0.000140    0.000059   -0.000045 Ang=  -0.02 deg.
 Variable       Old X    -DE/DX   Delta X   Delta X   Delta X     New X
                                 (Linear)    (Quad)   (Total)
    X1       -9.42242  -0.00001   0.00000  -0.00258  -0.00320  -9.42562
    Y1        0.44278  -0.00001   0.00000  -0.01156  -0.01127   0.43151
    Z1       -0.79788  -0.00002   0.00000  -0.02093  -0.02087  -0.81875
    X2       -9.69993  -0.00001   0.00000  -0.00012  -0.00034  -9.70027
    Y2       -1.97272  -0.00001   0.00000  -0.01520  -0.01450  -1.98722
    Z2       -2.36739  -0.00000   0.00000  -0.01598  -0.01663  -2.38403
    X3       -7.14415   0.00000   0.00000   0.00062   0.00060  -7.14355
    Y3       -2.79107  -0.00000   0.00000  -0.01522  -0.01398  -2.80505
    Z3       -3.46056  -0.00001   0.00000  -0.01448  -0.01506  -3.47562
    X4       -5.28547   0.00001   0.00000   0.00046   0.00022  -5.28525
    Y4       -3.21289   0.00002   0.00000  -0.00896  -0.00817  -3.22106
    Z4       -1.29790   0.00001   0.00000  -0.01320  -0.01368  -1.31158
    X5       -4.95265  -0.00001   0.00000  -0.00114  -0.00178  -4.95443
    Y5       -0.76645  -0.00003   0.00000  -0.00497  -0.00458  -0.77103
    Z5        0.27063  -0.00001   0.00000  -0.02006  -0.01981   0.25081
    X6       -7.49913  -0.00001   0.00000  -0.00115  -0.00199  -7.50113
    Y6        0.10314  -0.00001   0.00000  -0.00417  -0.00431   0.09883
    Z6        1.33683  -0.00002   0.00000  -0.02089  -0.02070   1.31613
    X7       -7.32280   0.00000   0.00000   0.00226   0.00253  -7.32028
    Y7       -4.51399  -0.00001   0.00000  -0.01774  -0.01620  -4.53019
    Z7       -4.59307  -0.00002   0.00000  -0.01093  -0.01202  -4.60509
    X8      -10.45431   0.00001   0.00000   0.00147   0.00125 -10.45306
    Y8       -3.49437  -0.00001   0.00000  -0.01349  -0.01319  -3.50755
    Z8       -1.17567  -0.00002   0.00000  -0.01284  -0.01400  -1.18968
    X9      -11.05057  -0.00000   0.00000  -0.00054  -0.00061 -11.05118
    Y9       -1.68486  -0.00001   0.00000  -0.01975  -0.01874  -1.70360
    Z9       -3.90697  -0.00001   0.00000  -0.01646  -0.01720  -3.92417
   X10       -8.79172  -0.00001   0.00000  -0.00520  -0.00582  -8.79754
   Y10        1.98703  -0.00001   0.00000  -0.01334  -0.01265   1.97438
   Z10       -2.03384  -0.00001   0.00000  -0.02446  -0.02390  -2.05773
   X11      -11.25493  -0.00001   0.00000  -0.00302  -0.00378 -11.25871
   Y11        0.99912  -0.00001   0.00000  -0.01228  -0.01238   0.98674
   Z11       -0.01568  -0.00002   0.00000  -0.02141  -0.02142  -0.03710
   X12       -6.01056  -0.00001   0.00000   0.00139   0.00114  -6.00942
   Y12       -4.69871  -0.00000   0.00000  -0.00662  -0.00624  -4.70495
   Z12       -0.05386  -0.00002   0.00000  -0.00989  -0.01087  -0.06473
   X13       -4.29401  -0.00003   0.00000  -0.00358  -0.00420  -4.29821
   Y13        0.69999  -0.00003   0.00000  -0.00861  -0.00779   0.69220
   Z13       -1.04031  -0.00004   0.00000  -0.02530  -0.02457  -1.06488
   X14       -8.18633   0.00000   0.00000   0.00079  -0.00009  -8.18642
   Y14       -1.28590   0.00001   0.00000  -0.00110  -0.00168  -1.28758
   Z14        2.70883  -0.00002   0.00000  -0.01684  -0.01712   2.69170
   X15       -7.19508   0.00001   0.00000  -0.00195  -0.00307  -7.19814
   Y15        1.89351  -0.00000   0.00000  -0.00130  -0.00169   1.89182
   Z15        2.33222  -0.00002   0.00000  -0.02579  -0.02507   2.30715
   X16       -6.46078  -0.00001   0.00000  -0.00072  -0.00073  -6.46151
   Y16       -1.27885  -0.00001   0.00000  -0.01714  -0.01549  -1.29435
   Z16       -4.70708  -0.00001   0.00000  -0.01752  -0.01760  -4.72468
   X17       -2.75256   0.00000   0.00000   0.00243   0.00236  -2.75019
   Y17       -4.06516  -0.00001   0.00000  -0.00695  -0.00570  -4.07086
   Z17       -2.11001   0.00001   0.00000  -0.00884  -0.00927  -2.11928
   X18       -1.45513   0.00000   0.00000   0.00464   0.00467  -1.45045
   Y18       -2.77503   0.00001   0.00000  -0.00492  -0.00305  -2.77808
   Z18       -3.91487  -0.00002   0.00000  -0.00587  -0.00577  -3.92064
   X19       -1.43867  -0.00001   0.00000   0.00132   0.00120  -1.43747
   Y19       -5.59850   0.00001   0.00000  -0.00384  -0.00291  -5.60142
   Z19       -0.52221   0.00000   0.00000  -0.00493  -0.00563  -0.52784
   X20        1.10154   0.00000   0.00000   0.00560   0.00567   1.10721
   Y20       -2.92286   0.00001   0.00000   0.00052   0.00269  -2.92017
   Z20       -4.14351   0.00000   0.00000   0.00135   0.00170  -4.14181
   X21       -2.56918   0.00001   0.00000   0.00569   0.00575  -2.56343
   Y21       -1.56959   0.00001   0.00000  -0.00689  -0.00477  -1.57436
   Z21       -5.13560  -0.00000   0.00000  -0.00876  -0.00846  -5.14406
   X22        1.12085  -0.00000   0.00000   0.00200   0.00191   1.12277
   Y22       -5.81998   0.00003   0.00000   0.00143   0.00261  -5.81737
   Z22       -0.61352   0.00002   0.00000   0.00211   0.00165  -0.61187
   X23       -2.54882   0.00000   0.00000  -0.00044  -0.00063  -2.54946
   Y23       -6.56190  -0.00000   0.00000  -0.00528  -0.00485  -6.56675
   Z23        0.90584  -0.00001   0.00000  -0.00728  -0.00838   0.89746
   X24        2.53654  -0.00000   0.00000   0.00351   0.00349   2.54003
   Y24       -4.31570  -0.00003   0.00000   0.00410   0.00589  -4.30981
   Z24       -2.33315  -0.00001   0.00000   0.00576   0.00589  -2.32726
   X25        2.02492   0.00001   0.00000   0.00747   0.00761   2.03253
   Y25       -1.84413   0.00000   0.00000   0.00236   0.00502  -1.83911
   Z25       -5.61432   0.00001   0.00000   0.00387   0.00463  -5.60969
   X26        2.03499   0.00001   0.00000   0.00068   0.00054   2.03553
   Y26       -6.98607   0.00001   0.00000   0.00394   0.00480  -6.98127
   Z26        0.79206   0.00000   0.00000   0.00505   0.00438   0.79644
   X27        5.04326   0.00000   0.00000   0.00308   0.00304   5.04631
   Y27       -4.23438   0.00004   0.00000   0.00996   0.01195  -4.22244
   Z27       -2.25762   0.00000   0.00000   0.01335   0.01380  -2.24382
   X28        6.42547  -0.00000   0.00000  -0.00129  -0.00150   6.42397
   Y28       -5.21417   0.00001   0.00000   0.01164   0.01314  -5.20103
   Z28       -0.05191   0.00002   0.00000   0.01682   0.01716  -0.03476
   X29        6.17850   0.00000   0.00000   0.00134   0.00130   6.17980
   Y29       -7.25942   0.00001   0.00000   0.01124   0.01266  -7.24676
   Z29        0.11571   0.00001   0.00000   0.01573   0.01547   0.13117
   X30        5.69807  -0.00001   0.00000  -0.00714  -0.00764   5.69044
   Y30       -4.24882   0.00001   0.00000   0.01022   0.01118  -4.23764
   Z30        1.63749   0.00000   0.00000   0.01509   0.01561   1.65309
   X31        6.48868  -0.00000   0.00000   0.00257   0.00250   6.49118
   Y31       -2.22787  -0.00000   0.00000   0.01379   0.01626  -2.21161
   Z31       -3.53592   0.00002   0.00000   0.01880   0.01998  -3.51594
   X32        7.00569  -0.00000   0.00000   0.00758   0.00779   7.01348
   Y32       -2.84124   0.00002   0.00000   0.01675   0.01980  -2.82144
   Z32       -5.44783   0.00002   0.00000   0.01924   0.02031  -5.42753
   X33        5.34624   0.00000   0.00000   0.00013  -0.00008   5.34616
   Y33       -0.51040   0.00003   0.00000   0.01221   0.01460  -0.49579
   Z33       -3.60055   0.00002   0.00000   0.01831   0.01983  -3.58072
   X34       -2.91885   0.00003   0.00000   0.00140   0.00056  -2.91829
   Y34       -0.98271   0.00010   0.00000   0.00087   0.00094  -0.98178
   Z34        2.10007   0.00001   0.00000  -0.02216  -0.02174   2.07833
   X35       -2.94767   0.00002   0.00000   0.00270   0.00171  -2.94596
   Y35       -2.67908   0.00004   0.00000   0.01276   0.01210  -2.66698
   Z35        4.67416  -0.00006   0.00000  -0.01431  -0.01436   4.65980
   X36       -5.26107  -0.00004   0.00000  -0.00039  -0.00124  -5.26231
   Y36       -4.19670  -0.00001   0.00000   0.01698   0.01612  -4.18058
   Z36        4.61979   0.00003   0.00000  -0.00296  -0.00370   4.61609
   X37       -0.52831   0.00001   0.00000   0.00059  -0.00031  -0.52862
   Y37       -3.99352   0.00000   0.00000   0.00912   0.00861  -3.98491
   Z37        4.92281  -0.00002   0.00000  -0.01284  -0.01298   4.90983
   X38       -1.28934   0.00002   0.00000  -0.00131  -0.00244  -1.29178
   Y38        4.60453  -0.00000   0.00000   0.00950   0.01020   4.61473
   Z38        0.27737   0.00001   0.00000   0.02527   0.02745   0.30482
   X39       -0.33885  -0.00001   0.00000  -0.00715  -0.00792  -0.34677
   Y39        3.53224   0.00003   0.00000   0.02089   0.02231   3.55455
   Z39       -1.95056  -0.00002   0.00000   0.01715   0.01914  -1.93141
   X40       -1.70852  -0.00000   0.00000  -0.01937  -0.01990  -1.72842
   Y40        3.71097   0.00003   0.00000   0.02093   0.02285   3.73382
   Z40       -4.19512   0.00004   0.00000   0.02461   0.02649  -4.16862
   X41       -4.05163  -0.00003   0.00000  -0.02623  -0.02686  -4.07849
   Y41        4.91678   0.00001   0.00000   0.00842   0.01014   4.92692
   Z41       -4.25750   0.00003   0.00000   0.04036   0.04229  -4.21520
   X42       -5.01983  -0.00000   0.00000  -0.02074  -0.02172  -5.04155
   Y42        5.96299  -0.00002   0.00000  -0.00422  -0.00320   5.95979
   Z42       -2.04312   0.00006   0.00000   0.04869   0.05080  -1.99231
   X43       -3.63948   0.00001   0.00000  -0.00824  -0.00947  -3.64895
   Y43        5.80813  -0.00002   0.00000  -0.00329  -0.00277   5.80536
   Z43        0.19653   0.00003   0.00000   0.04094   0.04318   0.23971
   X44        1.42928  -0.00001   0.00000  -0.00101  -0.00169   1.42758
   Y44        2.48121   0.00001   0.00000   0.02995   0.03150   2.51271
   Z44       -1.84426  -0.00002   0.00000   0.00449   0.00639  -1.83787
   X45       -0.92929  -0.00001   0.00000  -0.02365  -0.02390  -0.95319
   Y45        2.90689   0.00003   0.00000   0.03098   0.03346   2.94035
   Z45       -5.92019   0.00000   0.00000   0.01796   0.01971  -5.90048
   X46       -5.10757  -0.00002   0.00000  -0.03584  -0.03627  -5.14384
   Y46        5.05194   0.00002   0.00000   0.00859   0.01070   5.06264
   Z46       -6.01317   0.00005   0.00000   0.04617   0.04802  -5.96514
   X47       -6.84459  -0.00001   0.00000  -0.02614  -0.02720  -6.87179
   Y47        6.90415  -0.00001   0.00000  -0.01453  -0.01368   6.89047
   Z47       -2.05956   0.00006   0.00000   0.06123   0.06339  -1.99617
   X48       -4.40605   0.00000   0.00000  -0.00393  -0.00544  -4.41149
   Y48        6.63434  -0.00003   0.00000  -0.01314  -0.01318   6.62116
   Z48        1.91671   0.00005   0.00000   0.04758   0.04995   1.96666
   X49        1.02342  -0.00029   0.00000   0.00713   0.00585   1.02927
   Y49        2.12396   0.00021   0.00000   0.01184   0.01185   2.13581
   Z49        3.52691   0.00013   0.00000   0.02111   0.02286   3.54977
   X50       -1.23384   0.00004   0.00000   0.00333   0.00244  -1.23140
   Y50       -0.02961  -0.00014   0.00000  -0.00484  -0.00456  -0.03417
   Z50        1.85416  -0.00010   0.00000  -0.03061  -0.02973   1.82443
   X51        3.58627   0.00038   0.00000  -0.00576  -0.00683   3.57944
   Y51        0.98124  -0.00016   0.00000  -0.00571  -0.00521   0.97603
   Z51        2.59114   0.00005   0.00000   0.00414   0.00587   2.59700
   X52        3.29975  -0.00013   0.00000  -0.03064  -0.03136   3.26838
   Y52       -0.04016  -0.00001   0.00000  -0.00948  -0.00839  -0.04855
   Z52        0.39560  -0.00005   0.00000   0.00904   0.01044   0.40604
   X53        4.04080   0.00007   0.00000  -0.00015  -0.00130   4.03950
   Y53       -0.73344   0.00008   0.00000  -0.00329  -0.00330  -0.73674
   Z53        4.58996   0.00000   0.00000   0.00485   0.00616   4.59611
   X54        2.73398  -0.00007   0.00000  -0.00941  -0.01043   2.72355
   Y54       -2.01991  -0.00006   0.00000   0.00414   0.00405  -2.01586
   Z54        4.42551   0.00000   0.00000   0.01850   0.01929   4.44480
   X55        5.62968  -0.00000   0.00000   0.00921   0.00793   5.63761
   Y55        3.04505   0.00002   0.00000  -0.01785  -0.01722   3.02782
   Z55        2.84840   0.00002   0.00000  -0.01780  -0.01525   2.83315
   X56        5.19308   0.00004   0.00000   0.03264   0.03106   5.22414
   Y56        4.28408  -0.00004   0.00000  -0.01267  -0.01253   4.27155
   Z56        4.45337  -0.00005   0.00000  -0.01562  -0.01277   4.44059
   X57        7.37957  -0.00006   0.00000   0.00686   0.00561   7.38518
   Y57        2.05432  -0.00002   0.00000  -0.02915  -0.02851   2.02581
   Z57        3.35872  -0.00003   0.00000  -0.03238  -0.02991   3.32881
   X58        0.17758  -0.00002   0.00000   0.01172   0.01031   0.18789
   Y58        4.50998  -0.00002   0.00000   0.01214   0.01228   4.52227
   Z58        2.75838   0.00001   0.00000   0.01769   0.02001   2.77839
   X59       -1.09062   0.00003   0.00000   0.02215   0.02050  -1.07012
   Y59        5.21037  -0.00002   0.00000   0.02023   0.01985   5.23022
   Z59        4.25071   0.00002   0.00000   0.02266   0.02504   4.27575
   X60        1.74896   0.00002   0.00000   0.01548   0.01396   1.76292
   Y60        5.86592   0.00001   0.00000   0.00695   0.00727   5.87319
   Z60        2.66603   0.00000   0.00000   0.00508   0.00797   2.67399
   X61       -3.06389   0.00001   0.00000   0.01114   0.00966  -3.05423
   Y61       -0.44089   0.00000   0.00000   0.02369   0.02232  -0.41857
   Z61        7.17816  -0.00001   0.00000  -0.02354  -0.02298   7.15518
   X62       -1.39866   0.00001   0.00000   0.01388   0.01232  -1.38634
   Y62        0.76039   0.00002   0.00000   0.01866   0.01751   0.77790
   Z62        6.92942   0.00002   0.00000  -0.02959  -0.02850   6.90092
   X63       -4.81580   0.00001   0.00000   0.01363   0.01207  -4.80373
   Y63        0.63349   0.00002   0.00000   0.02732   0.02584   0.65933
   Z63        7.01330  -0.00002   0.00000  -0.02632  -0.02566   6.98764
   X64       -2.99017  -0.00001   0.00000   0.01002   0.00842  -2.98175
   Y64       -1.47667   0.00002   0.00000   0.03085   0.02899  -1.44768
   Z64        8.95963  -0.00002   0.00000  -0.01935  -0.01906   8.94056
   X65        6.09614   0.00000   0.00000  -0.00167  -0.00281   6.09333
   Y65        4.57660  -0.00000   0.00000  -0.02460  -0.02327   4.55333
   Z65        0.44790  -0.00001   0.00000  -0.02425  -0.02122   0.42668
   X66        6.65724  -0.00004   0.00000  -0.03412  -0.03496   6.62228
   Y66        3.28138  -0.00003   0.00000  -0.03192  -0.03011   3.25126
   Z66       -1.06766  -0.00003   0.00000  -0.03003  -0.02730  -1.09496
   X67        4.34743  -0.00000   0.00000   0.00070  -0.00044   4.34698
   Y67        5.46569   0.00001   0.00000  -0.00500  -0.00364   5.46205
   Z67       -0.21913   0.00000   0.00000  -0.00441  -0.00134  -0.22047
   X68        8.11566   0.00003   0.00000   0.02661   0.02525   8.14091
   Y68        6.60079  -0.00004   0.00000  -0.04805  -0.04663   6.55416
   Z68        0.83528  -0.00003   0.00000  -0.04899  -0.04517   0.79011
   X69        8.48791   0.00002   0.00000   0.01840   0.01715   8.50506
   Y69        7.65853  -0.00004   0.00000  -0.05291  -0.05097   7.60756
   Z69       -0.90257  -0.00004   0.00000  -0.05371  -0.04955  -0.95212
   X70        7.53228   0.00006   0.00000   0.06021   0.05855   7.59083
   Y70        7.95607  -0.00004   0.00000  -0.04088  -0.03992   7.91615
   Z70        2.28825  -0.00002   0.00000  -0.04221  -0.03806   2.25019
   X71        9.89865   0.00001   0.00000   0.02410   0.02275   9.92140
   Y71        5.75459  -0.00006   0.00000  -0.06905  -0.06764   5.68695
   Z71        1.46202  -0.00005   0.00000  -0.07022  -0.06643   1.39560
   X72        9.14754  -0.00000   0.00000  -0.00107  -0.00129   9.14625
   Y72       -4.44144   0.00001   0.00000   0.01555   0.01743  -4.42401
   Z72       -0.58808   0.00002   0.00000   0.02378   0.02466  -0.56343
   X73       10.27499  -0.00000   0.00000  -0.00532  -0.00574  10.26924
   Y73       -4.36277   0.00001   0.00000   0.01632   0.01782  -4.34495
   Z73        1.13748   0.00002   0.00000   0.02652   0.02755   1.16503
   X74       10.03403  -0.00000   0.00000   0.00384   0.00390  10.03793
   Y74       -5.77931   0.00002   0.00000   0.01733   0.01966  -5.75965
   Z74       -1.89681   0.00002   0.00000   0.02531   0.02592  -1.87090
   X75        8.79516  -0.00002   0.00000  -0.00150  -0.00181   8.79336
   Y75       -1.85745   0.00000   0.00000   0.01556   0.01777  -1.83968
   Z75       -1.83247   0.00002   0.00000   0.02401   0.02556  -1.80690
   X76        8.28847   0.00002   0.00000  -0.00591  -0.00650   8.28197
   Y76       -0.47508   0.00001   0.00000   0.01438   0.01613  -0.45894
   Z76       -0.38214   0.00001   0.00000   0.02354   0.02542  -0.35672
   X77       10.45062  -0.00000   0.00000  -0.00002  -0.00026  10.45036
   Y77       -1.19839   0.00001   0.00000   0.01792   0.02056  -1.17783
   Z77       -2.87382   0.00002   0.00000   0.02788   0.02981  -2.84401
         Item               Value     Threshold  Converged?
 Maximum Force            0.000376     0.000450     YES
 RMS     Force            0.000046     0.000300     YES
 Maximum Displacement     0.067644     0.001800     NO 
 RMS     Displacement     0.019755     0.001200     NO 
 Predicted change in Energy=-7.278400D-05
 GradGradGradGradGradGradGradGradGradGradGradGradGradGradGradGradGradGrad

 Leave Link  103 at Thu Feb  7 10:29:14 2019, MaxMem=   104857600 cpu:              28.4 elap:               1.3
 (Enter /home/xinyan/g16/l9999.exe)
 1\1\GINC-TSE4\Force\RM062X\6-31G(d)\C27H41N3O5S1\STEVETSE\07-Feb-2019\
 0\\#p M062X/6-31G* em=gd3 force int=ultrafine\\Title\\0,1\C,-4.98613,0
 .23431,-0.42222\C,-5.13298,-1.04392,-1.25277\C,-3.78052,-1.47697,-1.83
 125\C,-2.79695,-1.70019,-0.68682\C,-2.62083,-0.40559,0.14321\C,-3.9683
 7,0.05458,0.70742\H,-3.87506,-2.3887,-2.43055\H,-5.53218,-1.84914,-0.6
 2214\H,-5.84771,-0.89159,-2.06748\H,-4.65238,1.05149,-1.07626\H,-5.955
 85,0.52871,-0.0083\H,-3.18065,-2.48645,-0.0285\H,-2.27229,0.37042,-0.5
 5051\H,-4.33202,-0.68047,1.43345\H,-3.80747,1.002,1.23416\H,-3.4189,-0
 .67674,-2.49088\N,-1.45659,-2.15119,-1.11657\C,-0.77002,-1.46848,-2.07
 166\C,-0.76131,-2.9626,-0.27634\C,0.58291,-1.54671,-2.19265\H,-1.35955
 ,-0.83059,-2.71764\C,0.59313,-3.0798,-0.32466\H,-1.34878,-3.47241,0.47
 935\C,1.34228,-2.28377,-1.23465\H,1.07154,-0.97587,-2.97097\H,1.07687,
 -3.69687,0.41914\N,2.66878,-2.24074,-1.19468\C,3.40021,-2.75922,-0.027
 47\H,3.26952,-3.84152,0.06123\H,3.01529,-2.24838,0.86652\C,3.43366,-1.
 17894,-1.87113\H,3.70725,-1.50352,-2.88287\H,2.82911,-0.27009,-1.90533
 \N,-1.54459,-0.52003,1.11131\S,-1.55984,-1.41771,2.47346\O,-2.78404,-2
 .2208,2.44469\O,-0.27957,-2.11328,2.60504\C,-0.68229,2.43661,0.14678\C
 ,-0.17931,1.86918,-1.03219\C,-0.90411,1.96376,-2.21996\C,-2.14403,2.60
 185,-2.25297\C,-2.65638,3.15548,-1.08117\C,-1.92593,3.07353,0.104\H,0.
 75634,1.313,-0.97594\H,-0.49176,1.53826,-3.13283\H,-2.70281,2.67337,-3
 .18203\H,-3.622,3.65352,-1.08987\H,-2.33158,3.51074,1.01428\O,0.54157,
 1.12395,1.86636\H,-0.65292,-0.01567,0.98118\C,1.89777,0.51925,1.37117\
 O,1.74615,-0.02125,0.20934\O,2.1383,-0.38812,2.4289\H,1.44676,-1.06889
 ,2.34188\C,2.9791,1.61137,1.50731\H,2.74806,2.26704,2.35662\H,3.9051,1
 .0871,1.77736\C,0.09397,2.38658,1.45967\H,-0.57713,2.75721,2.24938\H,0
 .92551,3.10411,1.4108\C,-1.62134,-0.23331,3.79852\H,-0.74014,0.40238,3
 .66689\H,-2.54841,0.33523,3.71128\H,-1.58233,-0.78142,4.74123\C,3.2259
 4,2.42183,0.23702\H,3.52286,1.73643,-0.56498\H,2.30056,2.89232,-0.1159
 6\C,4.29462,3.49299,0.44201\H,4.49161,4.05272,-0.47762\H,3.98591,4.210
 17,1.21089\H,5.23814,3.0452,0.77367\C,4.84067,-2.35031,-0.3112\H,5.437
 29,-2.30868,0.60193\H,5.30978,-3.05828,-1.00375\C,4.6542,-0.98292,-0.9
 697\H,4.38607,-0.2514,-0.20222\H,5.53023,-0.63416,-1.52076\\Version=ES
 64L-G16RevA.03\State=1-A\HF=-1991.3557265\RMSD=5.179e-09\RMSF=4.586e-0
 5\Dipole=-1.3964775,-0.6089423,-2.2756011\Quadrupole=6.0705125,-4.8766
 077,-1.1939048,-9.781753,-3.2868636,7.7986846\PG=C01 [X(C27H41N3O5S1)]
 \\@


 NEVER LOSE YOUR IGNORANCE, IT CAN'T BE REPLACED.
   -- ANDY CAPP
 Job cpu time:       0 days  1 hours 23 minutes 13.0 seconds.
 Elapsed time:       0 days  0 hours  3 minutes 29.6 seconds.
 File lengths (MBytes):  RWF=    216 Int=      0 D2E=      0 Chk=     25 Scr=      1
 Normal termination of Gaussian 16 at Thu Feb  7 10:29:14 2019.
