 Entering Gaussian System, Link 0=g16
 Input=C27N3H41SO5-105.gjf
 Output=C27N3H41SO5-105.log
 Initial command:
 /home/xinyan/g16/l1.exe "/local/home/tmp/Gau-10372.inp" -scrdir="/local/home/tmp/"
 Entering Link 1 = /home/xinyan/g16/l1.exe PID=     10373.
  
 Copyright (c) 1988,1990,1992,1993,1995,1998,2003,2009,2016,
            Gaussian, Inc.  All Rights Reserved.
  
 This is part of the Gaussian(R) 16 program.  It is based on
 the Gaussian(R) 09 system (copyright 2009, Gaussian, Inc.),
 the Gaussian(R) 03 system (copyright 2003, Gaussian, Inc.),
 the Gaussian(R) 98 system (copyright 1998, Gaussian, Inc.),
 the Gaussian(R) 94 system (copyright 1995, Gaussian, Inc.),
 the Gaussian 92(TM) system (copyright 1992, Gaussian, Inc.),
 the Gaussian 90(TM) system (copyright 1990, Gaussian, Inc.),
 the Gaussian 88(TM) system (copyright 1988, Gaussian, Inc.),
 the Gaussian 86(TM) system (copyright 1986, Carnegie Mellon
 University), and the Gaussian 82(TM) system (copyright 1983,
 Carnegie Mellon University). Gaussian is a federally registered
 trademark of Gaussian, Inc.
  
 This software contains proprietary and confidential information,
 including trade secrets, belonging to Gaussian, Inc.
  
 This software is provided under written license and may be
 used, copied, transmitted, or stored only in accord with that
 written license.
  
 The following legend is applicable only to US Government
 contracts under FAR:
  
                    RESTRICTED RIGHTS LEGEND
  
 Use, reproduction and disclosure by the US Government is
 subject to restrictions as set forth in subparagraphs (a)
 and (c) of the Commercial Computer Software - Restricted
 Rights clause in FAR 52.227-19.
  
 Gaussian, Inc.
 340 Quinnipiac St., Bldg. 40, Wallingford CT 06492
  
  
 ---------------------------------------------------------------
 Warning -- This program may not be used in any manner that
 competes with the business of Gaussian, Inc. or will provide
 assistance to any competitor of Gaussian, Inc.  The licensee
 of this program is prohibited from giving any competitor of
 Gaussian, Inc. access to this program.  By using this program,
 the user acknowledges that Gaussian, Inc. is engaged in the
 business of creating and licensing software in the field of
 computational chemistry and represents and warrants to the
 licensee that it is not a competitor of Gaussian, Inc. and that
 it will not use this program in any manner prohibited above.
 ---------------------------------------------------------------
  

 Cite this work as:
 Gaussian 16, Revision A.03,
 M. J. Frisch, G. W. Trucks, H. B. Schlegel, G. E. Scuseria, 
 M. A. Robb, J. R. Cheeseman, G. Scalmani, V. Barone, 
 G. A. Petersson, H. Nakatsuji, X. Li, M. Caricato, A. V. Marenich, 
 J. Bloino, B. G. Janesko, R. Gomperts, B. Mennucci, H. P. Hratchian, 
 J. V. Ortiz, A. F. Izmaylov, J. L. Sonnenberg, D. Williams-Young, 
 F. Ding, F. Lipparini, F. Egidi, J. Goings, B. Peng, A. Petrone, 
 T. Henderson, D. Ranasinghe, V. G. Zakrzewski, J. Gao, N. Rega, 
 G. Zheng, W. Liang, M. Hada, M. Ehara, K. Toyota, R. Fukuda, 
 J. Hasegawa, M. Ishida, T. Nakajima, Y. Honda, O. Kitao, H. Nakai, 
 T. Vreven, K. Throssell, J. A. Montgomery, Jr., J. E. Peralta, 
 F. Ogliaro, M. J. Bearpark, J. J. Heyd, E. N. Brothers, K. N. Kudin, 
 V. N. Staroverov, T. A. Keith, R. Kobayashi, J. Normand, 
 K. Raghavachari, A. P. Rendell, J. C. Burant, S. S. Iyengar, 
 J. Tomasi, M. Cossi, J. M. Millam, M. Klene, C. Adamo, R. Cammi, 
 J. W. Ochterski, R. L. Martin, K. Morokuma, O. Farkas, 
 J. B. Foresman, and D. J. Fox, Gaussian, Inc., Wallingford CT, 2016.
 
 ******************************************
 Gaussian 16:  ES64L-G16RevA.03 25-Dec-2016
                 7-Feb-2019 
 ******************************************
 %nproc=24
 Will use up to   24 processors via shared memory.
 ------------------------------------------
 #p M062X/6-31G* em=gd3 force int=ultrafine
 ------------------------------------------
 1/10=7,30=1,38=1/1,3;
 2/12=2,17=6,18=5,40=1/2;
 3/5=1,6=6,7=1,11=2,25=1,30=1,71=1,74=-55,75=-5,124=31/1,2,3;
 4//1;
 5/5=2,38=5/2;
 6/7=2,8=2,9=2,10=2,28=1/1;
 7/29=1/1,2,3,16;
 1/10=7,30=1/3;
 99//99;
 Leave Link    1 at Thu Feb  7 14:21:44 2019, MaxMem=           0 cpu:               2.5 elap:               0.1
 (Enter /home/xinyan/g16/l101.exe)
 -----
 Title
 -----
 Symbolic Z-matrix:
 Charge =  0 Multiplicity = 1
 C                    -4.89941   0.24815  -0.42947 
 C                    -5.08943  -1.02422  -1.2607 
 C                    -3.75936  -1.48043  -1.87319 
 C                    -2.76041  -1.71954  -0.74708 
 C                    -2.52619  -0.42334   0.07084 
 C                    -3.85208   0.05558   0.67204 
 H                    -3.88503  -2.39154  -2.46784 
 H                    -5.48661  -1.8254   -0.62365 
 H                    -5.8219   -0.85562  -2.0563 
 H                    -4.5767    1.0627   -1.09111 
 H                    -5.85294   0.55261   0.01414 
 H                    -3.15144  -2.48931  -0.07476 
 H                    -2.19263   0.34494  -0.6384 
 H                    -4.2096   -0.6755    1.40488 
 H                    -3.66782   1.00095   1.19351 
 H                    -3.39807  -0.68834  -2.54293 
 N                    -1.43582  -2.20316  -1.18954 
 C                    -0.73262  -1.50021  -2.11736 
 C                    -0.75598  -3.02069  -0.34177 
 C                     0.62445  -1.55468  -2.19473 
 H                    -1.31328  -0.86098  -2.77103 
 C                     0.60113  -3.114    -0.34583 
 H                    -1.35951  -3.54133   0.39391 
 C                     1.36007  -2.27933  -1.20931 
 H                     1.12917  -0.96714  -2.94964 
 H                     1.07256  -3.727     0.40909 
 N                     2.68025  -2.18117  -1.10413 
 C                     3.39003  -2.67143   0.08721 
 H                     3.26762  -3.7529    0.19226 
 H                     2.98114  -2.15062   0.96556 
 C                     3.42239  -1.09263  -1.75568 
 H                     3.68513  -1.37941  -2.78135 
 H                     2.79523  -0.19712  -1.76313 
 N                    -1.42101  -0.548     1.00843 
 S                    -1.49632  -1.42769   2.37995 
 O                    -2.70545  -2.25546   2.32788 
 O                    -0.21312  -2.10798   2.572 
 C                    -0.70751   2.45805   0.24603 
 C                    -0.21185   1.99103  -0.98164 
 C                    -0.96913   2.11043  -2.1455 
 C                    -2.23796   2.68948  -2.11789 
 C                    -2.74329   3.15221  -0.90608 
 C                    -1.97983   3.03734   0.25599 
 H                     0.74494   1.48087  -0.99394 
 H                    -0.55759   1.75378  -3.08758 
 H                    -2.82174   2.78533  -3.02925 
 H                    -3.72875   3.60791  -0.86327 
 H                    -2.38264   3.41267   1.19472 
 O                     0.55513   1.26918   2.10167 
 H                    -0.43673  -0.29832   0.71723 
 C                     1.71572   0.55906   1.47513 
 O                     1.34384  -0.02022   0.35298 
 O                     2.07185  -0.35029   2.5006 
 H                     1.37836  -1.03416   2.48355 
 C                     2.91512   1.54051   1.41511 
 H                     2.83992   2.23427   2.26282 
 H                     3.80987   0.93608   1.61113 
 C                     0.10165   2.4727    1.5472 
 H                    -0.54904   2.91566   2.31265 
 H                     0.93779   3.17659   1.41974 
 C                    -1.65543  -0.24473   3.69702 
 H                    -0.77901   0.4055    3.62705 
 H                    -2.5813    0.31233   3.54344 
 H                    -1.68383  -0.79734   4.63755 
 C                     3.12208   2.31213   0.11493 
 H                     3.21867   1.60191  -0.71513 
 H                     2.24908   2.92728  -0.12862 
 C                     4.3594    3.20572   0.18535 
 H                     4.5253    3.74703  -0.75119 
 H                     4.25764   3.94623   0.98726 
 H                     5.25788   2.61499   0.39959 
 C                     4.83233  -2.26031  -0.18554 
 H                     5.42031  -2.20342   0.73222 
 H                     5.30895  -2.97775  -0.86269 
 C                     4.65611  -0.9021   -0.86831 
 H                     4.42625  -0.14801  -0.11115 
 H                     5.53099  -0.57835  -1.43596 
 
 ITRead=  0  0  0  0  0  0  0  0  0  0  0  0  0  0  0  0  0  0  0  0
 ITRead=  0  0  0  0  0  0  0  0  0  0  0  0  0  0  0  0  0  0  0  0
 ITRead=  0  0  0  0  0  0  0  0  0  0  0  0  0  0  0  0  0  0  0  0
 ITRead=  0  0  0  0  0  0  0  0  0  0  0  0  0  0  0  0  0
 MicOpt= -1 -1 -1 -1 -1 -1 -1 -1 -1 -1 -1 -1 -1 -1 -1 -1 -1 -1 -1 -1
 MicOpt= -1 -1 -1 -1 -1 -1 -1 -1 -1 -1 -1 -1 -1 -1 -1 -1 -1 -1 -1 -1
 MicOpt= -1 -1 -1 -1 -1 -1 -1 -1 -1 -1 -1 -1 -1 -1 -1 -1 -1 -1 -1 -1
 MicOpt= -1 -1 -1 -1 -1 -1 -1 -1 -1 -1 -1 -1 -1 -1 -1 -1 -1
 NAtoms=     77 NQM=       77 NQMF=       0 NMMI=      0 NMMIF=      0
                NMic=       0 NMicF=      0.
                    Isotopes and Nuclear Properties:
 (Nuclear quadrupole moments (NQMom) in fm**2, nuclear magnetic moments (NMagM)
  in nuclear magnetons)

  Atom         1           2           3           4           5           6           7           8           9          10
 IAtWgt=          12          12          12          12          12          12           1           1           1           1
 AtmWgt=  12.0000000  12.0000000  12.0000000  12.0000000  12.0000000  12.0000000   1.0078250   1.0078250   1.0078250   1.0078250
 NucSpn=           0           0           0           0           0           0           1           1           1           1
 AtZEff=  -0.0000000  -0.0000000  -0.0000000  -0.0000000  -0.0000000  -0.0000000  -0.0000000  -0.0000000  -0.0000000  -0.0000000
 NQMom=    0.0000000   0.0000000   0.0000000   0.0000000   0.0000000   0.0000000   0.0000000   0.0000000   0.0000000   0.0000000
 NMagM=    0.0000000   0.0000000   0.0000000   0.0000000   0.0000000   0.0000000   2.7928460   2.7928460   2.7928460   2.7928460
 AtZNuc=   6.0000000   6.0000000   6.0000000   6.0000000   6.0000000   6.0000000   1.0000000   1.0000000   1.0000000   1.0000000

  Atom        11          12          13          14          15          16          17          18          19          20
 IAtWgt=           1           1           1           1           1           1          14          12          12          12
 AtmWgt=   1.0078250   1.0078250   1.0078250   1.0078250   1.0078250   1.0078250  14.0030740  12.0000000  12.0000000  12.0000000
 NucSpn=           1           1           1           1           1           1           2           0           0           0
 AtZEff=  -0.0000000  -0.0000000  -0.0000000  -0.0000000  -0.0000000  -0.0000000  -0.0000000  -0.0000000  -0.0000000  -0.0000000
 NQMom=    0.0000000   0.0000000   0.0000000   0.0000000   0.0000000   0.0000000   2.0440000   0.0000000   0.0000000   0.0000000
 NMagM=    2.7928460   2.7928460   2.7928460   2.7928460   2.7928460   2.7928460   0.4037610   0.0000000   0.0000000   0.0000000
 AtZNuc=   1.0000000   1.0000000   1.0000000   1.0000000   1.0000000   1.0000000   7.0000000   6.0000000   6.0000000   6.0000000

  Atom        21          22          23          24          25          26          27          28          29          30
 IAtWgt=           1          12           1          12           1           1          14          12           1           1
 AtmWgt=   1.0078250  12.0000000   1.0078250  12.0000000   1.0078250   1.0078250  14.0030740  12.0000000   1.0078250   1.0078250
 NucSpn=           1           0           1           0           1           1           2           0           1           1
 AtZEff=  -0.0000000  -0.0000000  -0.0000000  -0.0000000  -0.0000000  -0.0000000  -0.0000000  -0.0000000  -0.0000000  -0.0000000
 NQMom=    0.0000000   0.0000000   0.0000000   0.0000000   0.0000000   0.0000000   2.0440000   0.0000000   0.0000000   0.0000000
 NMagM=    2.7928460   0.0000000   2.7928460   0.0000000   2.7928460   2.7928460   0.4037610   0.0000000   2.7928460   2.7928460
 AtZNuc=   1.0000000   6.0000000   1.0000000   6.0000000   1.0000000   1.0000000   7.0000000   6.0000000   1.0000000   1.0000000

  Atom        31          32          33          34          35          36          37          38          39          40
 IAtWgt=          12           1           1          14          32          16          16          12          12          12
 AtmWgt=  12.0000000   1.0078250   1.0078250  14.0030740  31.9720718  15.9949146  15.9949146  12.0000000  12.0000000  12.0000000
 NucSpn=           0           1           1           2           0           0           0           0           0           0
 AtZEff=  -0.0000000  -0.0000000  -0.0000000  -0.0000000  -0.0000000  -0.0000000  -0.0000000  -0.0000000  -0.0000000  -0.0000000
 NQMom=    0.0000000   0.0000000   0.0000000   2.0440000   0.0000000   0.0000000   0.0000000   0.0000000   0.0000000   0.0000000
 NMagM=    0.0000000   2.7928460   2.7928460   0.4037610   0.0000000   0.0000000   0.0000000   0.0000000   0.0000000   0.0000000
 AtZNuc=   6.0000000   1.0000000   1.0000000   7.0000000  16.0000000   8.0000000   8.0000000   6.0000000   6.0000000   6.0000000

  Atom        41          42          43          44          45          46          47          48          49          50
 IAtWgt=          12          12          12           1           1           1           1           1          16           1
 AtmWgt=  12.0000000  12.0000000  12.0000000   1.0078250   1.0078250   1.0078250   1.0078250   1.0078250  15.9949146   1.0078250
 NucSpn=           0           0           0           1           1           1           1           1           0           1
 AtZEff=  -0.0000000  -0.0000000  -0.0000000  -0.0000000  -0.0000000  -0.0000000  -0.0000000  -0.0000000  -0.0000000  -0.0000000
 NQMom=    0.0000000   0.0000000   0.0000000   0.0000000   0.0000000   0.0000000   0.0000000   0.0000000   0.0000000   0.0000000
 NMagM=    0.0000000   0.0000000   0.0000000   2.7928460   2.7928460   2.7928460   2.7928460   2.7928460   0.0000000   2.7928460
 AtZNuc=   6.0000000   6.0000000   6.0000000   1.0000000   1.0000000   1.0000000   1.0000000   1.0000000   8.0000000   1.0000000

  Atom        51          52          53          54          55          56          57          58          59          60
 IAtWgt=          12          16          16           1          12           1           1          12           1           1
 AtmWgt=  12.0000000  15.9949146  15.9949146   1.0078250  12.0000000   1.0078250   1.0078250  12.0000000   1.0078250   1.0078250
 NucSpn=           0           0           0           1           0           1           1           0           1           1
 AtZEff=  -0.0000000  -0.0000000  -0.0000000  -0.0000000  -0.0000000  -0.0000000  -0.0000000  -0.0000000  -0.0000000  -0.0000000
 NQMom=    0.0000000   0.0000000   0.0000000   0.0000000   0.0000000   0.0000000   0.0000000   0.0000000   0.0000000   0.0000000
 NMagM=    0.0000000   0.0000000   0.0000000   2.7928460   0.0000000   2.7928460   2.7928460   0.0000000   2.7928460   2.7928460
 AtZNuc=   6.0000000   8.0000000   8.0000000   1.0000000   6.0000000   1.0000000   1.0000000   6.0000000   1.0000000   1.0000000

  Atom        61          62          63          64          65          66          67          68          69          70
 IAtWgt=          12           1           1           1          12           1           1          12           1           1
 AtmWgt=  12.0000000   1.0078250   1.0078250   1.0078250  12.0000000   1.0078250   1.0078250  12.0000000   1.0078250   1.0078250
 NucSpn=           0           1           1           1           0           1           1           0           1           1
 AtZEff=  -0.0000000  -0.0000000  -0.0000000  -0.0000000  -0.0000000  -0.0000000  -0.0000000  -0.0000000  -0.0000000  -0.0000000
 NQMom=    0.0000000   0.0000000   0.0000000   0.0000000   0.0000000   0.0000000   0.0000000   0.0000000   0.0000000   0.0000000
 NMagM=    0.0000000   2.7928460   2.7928460   2.7928460   0.0000000   2.7928460   2.7928460   0.0000000   2.7928460   2.7928460
 AtZNuc=   6.0000000   1.0000000   1.0000000   1.0000000   6.0000000   1.0000000   1.0000000   6.0000000   1.0000000   1.0000000

  Atom        71          72          73          74          75          76          77
 IAtWgt=           1          12           1           1          12           1           1
 AtmWgt=   1.0078250  12.0000000   1.0078250   1.0078250  12.0000000   1.0078250   1.0078250
 NucSpn=           1           0           1           1           0           1           1
 AtZEff=  -0.0000000  -0.0000000  -0.0000000  -0.0000000  -0.0000000  -0.0000000  -0.0000000
 NQMom=    0.0000000   0.0000000   0.0000000   0.0000000   0.0000000   0.0000000   0.0000000
 NMagM=    2.7928460   0.0000000   2.7928460   2.7928460   0.0000000   2.7928460   2.7928460
 AtZNuc=   1.0000000   6.0000000   1.0000000   1.0000000   6.0000000   1.0000000   1.0000000
 Leave Link  101 at Thu Feb  7 14:21:45 2019, MaxMem=   104857600 cpu:               5.8 elap:               0.3
 (Enter /home/xinyan/g16/l103.exe)

 GradGradGradGradGradGradGradGradGradGradGradGradGradGradGradGradGradGrad
 Berny optimization.
 Initialization pass.
 Trust Radius=3.00D-01 FncErr=1.00D-07 GrdErr=1.00D-07 EigMax=2.50D+02 EigMin=1.00D-04
 Number of steps in this run=      2 maximum allowed number of steps=      2.
 GradGradGradGradGradGradGradGradGradGradGradGradGradGradGradGradGradGrad

 Leave Link  103 at Thu Feb  7 14:21:45 2019, MaxMem=   104857600 cpu:               1.8 elap:               0.1
 (Enter /home/xinyan/g16/l202.exe)
 Stoichiometry    C27H41N3O5S
 Framework group  C1[X(C27H41N3O5S)]
 Deg. of freedom   225
 Full point group                 C1      NOp   1
 Largest Abelian subgroup         C1      NOp   1
 Largest concise Abelian subgroup C1      NOp   1
                         Standard orientation:                         
 ---------------------------------------------------------------------
 Center     Atomic      Atomic             Coordinates (Angstroms)
 Number     Number       Type             X           Y           Z
 ---------------------------------------------------------------------
      1          6           0       -4.786510    0.446689   -0.518280
      2          6           0       -4.990326   -0.848044   -1.310808
      3          6           0       -3.671827   -1.318343   -1.937496
      4          6           0       -2.649841   -1.525139   -0.825751
      5          6           0       -2.402157   -0.206868   -0.048063
      6          6           0       -3.716756    0.285835    0.566643
      7          1           0       -3.807367   -2.245434   -2.504643
      8          1           0       -5.372750   -1.632379   -0.644441
      9          1           0       -5.739065   -0.702321   -2.095711
     10          1           0       -4.479067    1.243593   -1.208080
     11          1           0       -5.731602    0.761380   -0.063884
     12          1           0       -3.025477   -2.277110   -0.125107
     13          1           0       -2.084719    0.542514   -0.784404
     14          1           0       -4.057758   -0.425764    1.326050
     15          1           0       -3.524192    1.245294    1.058542
     16          1           0       -3.325924   -0.544042   -2.635563
     17          7           0       -1.333331   -2.018245   -1.281654
     18          6           0       -0.650585   -1.339440   -2.242154
     19          6           0       -0.634673   -2.811340   -0.426009
     20          6           0        0.704772   -1.393615   -2.345430
     21          1           0       -1.245764   -0.719153   -2.900995
     22          6           0        0.722290   -2.902356   -0.454968
     23          1           0       -1.222059   -3.312928    0.335519
     24          6           0        1.461760   -2.090040   -1.355851
     25          1           0        1.192828   -0.825844   -3.125989
     26          1           0        1.210242   -3.493873    0.306564
     27          7           0        2.783563   -1.986764   -1.280061
     28          6           0        3.518329   -2.443357   -0.090491
     29          1           0        3.400540   -3.521800    0.046202
     30          1           0        3.126030   -1.899677    0.781545
     31          6           0        3.509925   -0.914965   -1.975657
     32          1           0        3.752598   -1.228944   -2.998301
     33          1           0        2.880691   -0.021082   -1.994633
     34          7           0       -1.278023   -0.304173    0.870030
     35         16           0       -1.323662   -1.146546    2.266067
     36          8           0       -2.531695   -1.977532    2.260832
     37          8           0       -0.035296   -1.819147    2.450464
     38          6           0       -0.586924    2.681380    0.012401
     39          6           0       -0.115036    2.182166   -1.211963
     40          6           0       -0.895889    2.268697   -2.363085
     41          6           0       -2.165229    2.846065   -2.325502
     42          6           0       -2.647094    3.340544   -1.116677
     43          6           0       -1.860110    3.258505    0.032408
     44          1           0        0.842478    1.673532   -1.229802
     45          1           0       -0.502602    1.887396   -3.303305
     46          1           0       -2.767475    2.916192   -3.227137
     47          1           0       -3.632534    3.795515   -1.066295
     48          1           0       -2.244779    3.658403    0.968599
     49          8           0        0.715577    1.545381    1.873602
     50          1           0       -0.300387   -0.060749    0.552358
     51          6           0        1.864929    0.820589    1.243159
     52          8           0        1.471839    0.210498    0.144819
     53          8           0        2.243736   -0.060047    2.285426
     54          1           0        1.551612   -0.745338    2.300882
     55          6           0        3.060623    1.802148    1.132411
     56          1           0        3.000932    2.518467    1.962407
     57          1           0        3.960525    1.204808    1.326575
     58          6           0        0.248257    2.732658    1.296083
     59          1           0       -0.387888    3.195038    2.062273
     60          1           0        1.080043    3.434298    1.132775
     61          6           0       -1.458908    0.071351    3.553629
     62          1           0       -0.585569    0.720978    3.448415
     63          1           0       -2.388960    0.622433    3.403790
     64          1           0       -1.467082   -0.455647    4.509133
     65          6           0        3.239570    2.538652   -0.192066
     66          1           0        3.321041    1.806393   -1.004409
     67          1           0        2.360432    3.145458   -0.434462
     68          6           0        4.476007    3.435979   -0.170840
     69          1           0        4.621758    3.952029   -1.124829
     70          1           0        4.388731    4.197745    0.612656
     71          1           0        5.379973    2.852835    0.041088
     72          6           0        4.953893   -2.037253   -0.403342
     73          1           0        5.560117   -1.954515    0.500476
     74          1           0        5.418414   -2.771926   -1.070347
     75          6           0        4.760837   -0.698332   -1.118872
     76          1           0        4.544555    0.075574   -0.377879
     77          1           0        5.623356   -0.388539   -1.712627
 ---------------------------------------------------------------------
 Rotational constants (GHZ):           0.1541489           0.1010631           0.0907784
 Leave Link  202 at Thu Feb  7 14:21:45 2019, MaxMem=   104857600 cpu:               2.5 elap:               0.1
 (Enter /home/xinyan/g16/l301.exe)
 Standard basis: 6-31G(d) (6D, 7F)
 Ernie: Thresh=  0.10000D-02 Tol=  0.10000D-05 Strict=F.
 There are   626 symmetry adapted cartesian basis functions of A   symmetry.
 There are   626 symmetry adapted basis functions of A   symmetry.
   626 basis functions,  1196 primitive gaussians,   626 cartesian basis functions
   140 alpha electrons      140 beta electrons
       nuclear repulsion energy      4990.5915907783 Hartrees.
 IExCor= 4336 DFT=T Ex+Corr=M062X ExCW=0 ScaHFX=  0.540000
 ScaDFX=  1.000000  1.000000  1.000000  1.000000 ScalE2=  1.000000  1.000000
 IRadAn=      5 IRanWt=     -1 IRanGd=            0 ICorTp=0 IEmpDi=131
 NAtoms=   77 NActive=   77 NUniq=   77 SFac= 1.00D+00 NAtFMM=   60 NAOKFM=T Big=T
 Integral buffers will be    131072 words long.
 Raffenetti 2 integral format.
 Two-electron integral symmetry is turned on.
 R6Disp:  Grimme-D3 Dispersion energy=       -0.0108319806 Hartrees.
 Nuclear repulsion after empirical dispersion term =     4990.5807587978 Hartrees.
 Leave Link  301 at Thu Feb  7 14:21:45 2019, MaxMem=   104857600 cpu:               3.0 elap:               0.2
 (Enter /home/xinyan/g16/l302.exe)
 NPDir=0 NMtPBC=     1 NCelOv=     1 NCel=       1 NClECP=     1 NCelD=      1
         NCelK=      1 NCelE2=     1 NClLst=     1 CellRange=     0.0.
 One-electron integrals computed using PRISM.
 One-electron integral symmetry used in STVInt
 PrsmSu:  requested number of processors reduced to:  23 ShMem   1 Linda.
 NBasis=   626 RedAO= T EigKep=  4.43D-04  NBF=   626
 NBsUse=   626 1.00D-06 EigRej= -1.00D+00 NBFU=   626
 Precomputing XC quadrature grid using
 IXCGrd= 4 IRadAn=           5 IRanWt=          -1 IRanGd=           0 AccXCQ= 0.00D+00.
 Generated NRdTot=       0 NPtTot=           0 NUsed=           0 NTot=          32
 NSgBfM=   621   621   621   621   621 MxSgAt=    77 MxSgA2=    77.
 Leave Link  302 at Thu Feb  7 14:21:48 2019, MaxMem=   104857600 cpu:              77.6 elap:               3.4
 (Enter /home/xinyan/g16/l303.exe)
 DipDrv:  MaxL=1.
 Leave Link  303 at Thu Feb  7 14:21:49 2019, MaxMem=   104857600 cpu:               6.2 elap:               0.3
 (Enter /home/xinyan/g16/l401.exe)
 ExpMin= 1.17D-01 ExpMax= 2.19D+04 ExpMxC= 3.30D+03 IAcc=3 IRadAn=         5 AccDes= 0.00D+00
 Harris functional with IExCor= 1009 and IRadAn=       5 diagonalized for initial guess.
 HarFok:  IExCor= 1009 AccDes= 0.00D+00 IRadAn=         5 IDoV= 1 UseB2=F ITyADJ=14
 ICtDFT=  3500011 ScaDFX=  1.000000  1.000000  1.000000  1.000000
 FoFCou: FMM=F IPFlag=           0 FMFlag=      100000 FMFlg1=        2001
         NFxFlg=           0 DoJE=T BraDBF=F KetDBF=T FulRan=T
         wScrn=  0.000000 ICntrl=       500 IOpCl=  0 I1Cent=   200000004 NGrid=           0
         NMat0=    1 NMatS0=      1 NMatT0=    0 NMatD0=    1 NMtDS0=    0 NMtDT0=    0
 Petite list used in FoFCou.
 Harris En= -1990.52946245908    
 JPrj=0 DoOrth=F DoCkMO=F.
 Leave Link  401 at Thu Feb  7 14:21:53 2019, MaxMem=   104857600 cpu:             100.2 elap:               4.2
 (Enter /home/xinyan/g16/l502.exe)
 Integral symmetry usage will be decided dynamically.
 Closed shell SCF:
 Using DIIS extrapolation, IDIIS=  1040.
 NGot=   104857600 LenX=   104051656 LenY=   103659154
 Requested convergence on RMS density matrix=1.00D-08 within 128 cycles.
 Requested convergence on MAX density matrix=1.00D-06.
 Requested convergence on             energy=1.00D-06.
 No special actions if energy rises.
 Fock matrices will be formed incrementally for  20 cycles.
 Integral accuracy reduced to 1.0D-05 until final iterations.

 Cycle   1  Pass 0  IDiag  1:
 FoFJK:  IHMeth= 1 ICntrl=       0 DoSepK=F KAlg= 0 I1Cent=           0 FoldK=F
 IRaf= 990000000 NMat=       1 IRICut=       1 DoRegI=T DoRafI=F ISym2E= 0 IDoP0=0 IntGTp=1.
 FoFCou: FMM=T IPFlag=           0 FMFlag=      100000 FMFlg1=        2001
         NFxFlg=           0 DoJE=F BraDBF=F KetDBF=F FulRan=T
         wScrn=  0.000000 ICntrl=         0 IOpCl=  0 I1Cent=           0 NGrid=           0
         NMat0=    1 NMatS0=      1 NMatT0=    0 NMatD0=    1 NMtDS0=    0 NMtDT0=    0
 Symmetry not used in FoFCou.
 FMM levels:  10  Number of levels for PrismC:   9
 E= -1990.29933593995    
 DIIS: error= 2.22D-02 at cycle   1 NSaved=   1.
 NSaved= 1 IEnMin= 1 EnMin= -1990.29933593995     IErMin= 1 ErrMin= 2.22D-02
 ErrMax= 2.22D-02  0.00D+00 EMaxC= 1.00D-01 BMatC= 1.24D+00 BMatP= 1.24D+00
 IDIUse=3 WtCom= 7.78D-01 WtEn= 2.22D-01
 Coeff-Com:  0.100D+01
 Coeff-En:   0.100D+01
 Coeff:      0.100D+01
 Gap=     0.368 Goal=   None    Shift=    0.000
 GapD=    0.368 DampG=1.000 DampE=0.500 DampFc=0.5000 IDamp=-1.
 Damping current iteration by 5.00D-01
 RMSDP=3.44D-03 MaxDP=3.46D-01              OVMax= 1.96D-01

 Cycle   2  Pass 0  IDiag  1:
 RMSU=  1.71D-03    CP:  9.88D-01
 E= -1990.81209529952     Delta-E=       -0.512759359573 Rises=F Damp=T
 DIIS: error= 7.42D-03 at cycle   2 NSaved=   2.
 NSaved= 2 IEnMin= 2 EnMin= -1990.81209529952     IErMin= 2 ErrMin= 7.42D-03
 ErrMax= 7.42D-03  0.00D+00 EMaxC= 1.00D-01 BMatC= 9.28D-02 BMatP= 1.24D+00
 IDIUse=3 WtCom= 9.26D-01 WtEn= 7.42D-02
 Coeff-Com: -0.286D-01 0.103D+01
 Coeff-En:   0.000D+00 0.100D+01
 Coeff:     -0.265D-01 0.103D+01
 Gap=     0.261 Goal=   None    Shift=    0.000
 RMSDP=8.56D-04 MaxDP=7.79D-02 DE=-5.13D-01 OVMax= 1.15D-01

 Cycle   3  Pass 0  IDiag  1:
 RMSU=  8.45D-04    CP:  9.81D-01  9.46D-01
 E= -1991.31736723221     Delta-E=       -0.505271932690 Rises=F Damp=F
 DIIS: error= 6.54D-03 at cycle   3 NSaved=   3.
 NSaved= 3 IEnMin= 3 EnMin= -1991.31736723221     IErMin= 3 ErrMin= 6.54D-03
 ErrMax= 6.54D-03  0.00D+00 EMaxC= 1.00D-01 BMatC= 4.94D-02 BMatP= 9.28D-02
 IDIUse=3 WtCom= 9.35D-01 WtEn= 6.54D-02
 Coeff-Com: -0.711D-01 0.440D+00 0.631D+00
 Coeff-En:   0.000D+00 0.000D+00 0.100D+01
 Coeff:     -0.665D-01 0.411D+00 0.655D+00
 Gap=     0.245 Goal=   None    Shift=    0.000
 RMSDP=5.10D-04 MaxDP=3.69D-02 DE=-5.05D-01 OVMax= 6.00D-02

 Cycle   4  Pass 0  IDiag  1:
 RMSU=  3.37D-04    CP:  9.84D-01  1.05D+00  6.04D-01
 E= -1991.34775535424     Delta-E=       -0.030388122030 Rises=F Damp=F
 DIIS: error= 3.91D-03 at cycle   4 NSaved=   4.
 NSaved= 4 IEnMin= 4 EnMin= -1991.34775535424     IErMin= 4 ErrMin= 3.91D-03
 ErrMax= 3.91D-03  0.00D+00 EMaxC= 1.00D-01 BMatC= 1.20D-02 BMatP= 4.94D-02
 IDIUse=3 WtCom= 9.61D-01 WtEn= 3.91D-02
 Coeff-Com: -0.285D-01 0.915D-01 0.358D+00 0.579D+00
 Coeff-En:   0.000D+00 0.000D+00 0.206D+00 0.794D+00
 Coeff:     -0.274D-01 0.880D-01 0.352D+00 0.587D+00
 Gap=     0.228 Goal=   None    Shift=    0.000
 RMSDP=2.05D-04 MaxDP=1.43D-02 DE=-3.04D-02 OVMax= 2.77D-02

 Cycle   5  Pass 0  IDiag  1:
 RMSU=  8.60D-05    CP:  9.83D-01  1.04D+00  7.33D-01  5.62D-01
 E= -1991.35772524450     Delta-E=       -0.009969890256 Rises=F Damp=F
 DIIS: error= 1.00D-03 at cycle   5 NSaved=   5.
 NSaved= 5 IEnMin= 5 EnMin= -1991.35772524450     IErMin= 5 ErrMin= 1.00D-03
 ErrMax= 1.00D-03  0.00D+00 EMaxC= 1.00D-01 BMatC= 5.82D-04 BMatP= 1.20D-02
 IDIUse=3 WtCom= 9.90D-01 WtEn= 1.00D-02
 Coeff-Com: -0.935D-02 0.215D-01 0.134D+00 0.285D+00 0.569D+00
 Coeff-En:   0.000D+00 0.000D+00 0.000D+00 0.000D+00 0.100D+01
 Coeff:     -0.926D-02 0.213D-01 0.133D+00 0.282D+00 0.573D+00
 Gap=     0.228 Goal=   None    Shift=    0.000
 RMSDP=5.08D-05 MaxDP=3.71D-03 DE=-9.97D-03 OVMax= 8.77D-03

 Cycle   6  Pass 0  IDiag  1:
 RMSU=  2.71D-05    CP:  9.83D-01  1.04D+00  7.31D-01  6.34D-01  5.92D-01
 E= -1991.35823096044     Delta-E=       -0.000505715937 Rises=F Damp=F
 DIIS: error= 3.28D-04 at cycle   6 NSaved=   6.
 NSaved= 6 IEnMin= 6 EnMin= -1991.35823096044     IErMin= 6 ErrMin= 3.28D-04
 ErrMax= 3.28D-04  0.00D+00 EMaxC= 1.00D-01 BMatC= 5.81D-05 BMatP= 5.82D-04
 IDIUse=3 WtCom= 9.97D-01 WtEn= 3.28D-03
 Coeff-Com: -0.183D-02 0.191D-02 0.302D-01 0.826D-01 0.293D+00 0.594D+00
 Coeff-En:   0.000D+00 0.000D+00 0.000D+00 0.000D+00 0.183D-02 0.998D+00
 Coeff:     -0.182D-02 0.191D-02 0.301D-01 0.823D-01 0.292D+00 0.595D+00
 Gap=     0.229 Goal=   None    Shift=    0.000
 RMSDP=1.49D-05 MaxDP=8.80D-04 DE=-5.06D-04 OVMax= 2.36D-03

 Cycle   7  Pass 0  IDiag  1:
 RMSU=  9.34D-06    CP:  9.83D-01  1.04D+00  7.34D-01  6.34D-01  6.76D-01
                    CP:  6.76D-01
 E= -1991.35828573781     Delta-E=       -0.000054777378 Rises=F Damp=F
 DIIS: error= 5.12D-05 at cycle   7 NSaved=   7.
 NSaved= 7 IEnMin= 7 EnMin= -1991.35828573781     IErMin= 7 ErrMin= 5.12D-05
 ErrMax= 5.12D-05  0.00D+00 EMaxC= 1.00D-01 BMatC= 3.88D-06 BMatP= 5.81D-05
 IDIUse=1 WtCom= 1.00D+00 WtEn= 0.00D+00
 Coeff-Com:  0.168D-03-0.133D-02-0.125D-02 0.604D-02 0.719D-01 0.256D+00
 Coeff-Com:  0.669D+00
 Coeff:      0.168D-03-0.133D-02-0.125D-02 0.604D-02 0.719D-01 0.256D+00
 Coeff:      0.669D+00
 Gap=     0.228 Goal=   None    Shift=    0.000
 RMSDP=4.44D-06 MaxDP=2.39D-04 DE=-5.48D-05 OVMax= 5.13D-04

 Initial convergence to 1.0D-05 achieved.  Increase integral accuracy.
 Cycle   8  Pass 1  IDiag  1:
 E= -1991.35831397945     Delta-E=       -0.000028241637 Rises=F Damp=F
 DIIS: error= 2.07D-04 at cycle   1 NSaved=   1.
 NSaved= 1 IEnMin= 1 EnMin= -1991.35831397945     IErMin= 1 ErrMin= 2.07D-04
 ErrMax= 2.07D-04  0.00D+00 EMaxC= 1.00D-01 BMatC= 1.34D-05 BMatP= 1.34D-05
 IDIUse=3 WtCom= 9.98D-01 WtEn= 2.07D-03
 Coeff-Com:  0.100D+01
 Coeff-En:   0.100D+01
 Coeff:      0.100D+01
 Gap=     0.228 Goal=   None    Shift=    0.000
 RMSDP=4.44D-06 MaxDP=2.39D-04 DE=-2.82D-05 OVMax= 4.65D-04

 Cycle   9  Pass 1  IDiag  1:
 RMSU=  7.33D-05    CP:  1.00D+00
 E= -1991.35832592853     Delta-E=       -0.000011949076 Rises=F Damp=F
 DIIS: error= 2.17D-05 at cycle   2 NSaved=   2.
 NSaved= 2 IEnMin= 2 EnMin= -1991.35832592853     IErMin= 2 ErrMin= 2.17D-05
 ErrMax= 2.17D-05  0.00D+00 EMaxC= 1.00D-01 BMatC= 7.85D-07 BMatP= 1.34D-05
 IDIUse=1 WtCom= 1.00D+00 WtEn= 0.00D+00
 Coeff-Com:  0.686D-01 0.931D+00
 Coeff:      0.686D-01 0.931D+00
 Gap=     0.228 Goal=   None    Shift=    0.000
 RMSDP=3.85D-06 MaxDP=2.03D-04 DE=-1.19D-05 OVMax= 3.54D-04

 Cycle  10  Pass 1  IDiag  1:
 RMSU=  3.24D-06    CP:  1.00D+00  1.03D+00
 E= -1991.35832557881     Delta-E=        0.000000349713 Rises=F Damp=F
 DIIS: error= 3.57D-05 at cycle   3 NSaved=   3.
 NSaved= 3 IEnMin= 2 EnMin= -1991.35832592853     IErMin= 2 ErrMin= 2.17D-05
 ErrMax= 3.57D-05  0.00D+00 EMaxC= 1.00D-01 BMatC= 1.24D-06 BMatP= 7.85D-07
 IDIUse=1 WtCom= 1.00D+00 WtEn= 0.00D+00
 Coeff-Com: -0.144D-01 0.562D+00 0.452D+00
 Coeff:     -0.144D-01 0.562D+00 0.452D+00
 Gap=     0.228 Goal=   None    Shift=    0.000
 RMSDP=1.82D-06 MaxDP=1.22D-04 DE= 3.50D-07 OVMax= 2.21D-04

 Cycle  11  Pass 1  IDiag  1:
 RMSU=  6.20D-07    CP:  1.00D+00  1.03D+00  4.79D-01
 E= -1991.35832661175     Delta-E=       -0.000001032937 Rises=F Damp=F
 DIIS: error= 4.02D-06 at cycle   4 NSaved=   4.
 NSaved= 4 IEnMin= 4 EnMin= -1991.35832661175     IErMin= 4 ErrMin= 4.02D-06
 ErrMax= 4.02D-06  0.00D+00 EMaxC= 1.00D-01 BMatC= 1.12D-08 BMatP= 7.85D-07
 IDIUse=1 WtCom= 1.00D+00 WtEn= 0.00D+00
 Coeff-Com: -0.803D-02 0.257D+00 0.218D+00 0.533D+00
 Coeff:     -0.803D-02 0.257D+00 0.218D+00 0.533D+00
 Gap=     0.228 Goal=   None    Shift=    0.000
 RMSDP=2.18D-07 MaxDP=1.20D-05 DE=-1.03D-06 OVMax= 3.50D-05

 Cycle  12  Pass 1  IDiag  1:
 RMSU=  1.92D-07    CP:  1.00D+00  1.03D+00  4.97D-01  8.67D-01
 E= -1991.35832662217     Delta-E=       -0.000000010418 Rises=F Damp=F
 DIIS: error= 1.48D-06 at cycle   5 NSaved=   5.
 NSaved= 5 IEnMin= 5 EnMin= -1991.35832662217     IErMin= 5 ErrMin= 1.48D-06
 ErrMax= 1.48D-06  0.00D+00 EMaxC= 1.00D-01 BMatC= 9.31D-10 BMatP= 1.12D-08
 IDIUse=1 WtCom= 1.00D+00 WtEn= 0.00D+00
 Coeff-Com: -0.106D-02 0.200D-01 0.185D-01 0.214D+00 0.749D+00
 Coeff:     -0.106D-02 0.200D-01 0.185D-01 0.214D+00 0.749D+00
 Gap=     0.228 Goal=   None    Shift=    0.000
 RMSDP=8.36D-08 MaxDP=4.83D-06 DE=-1.04D-08 OVMax= 9.75D-06

 Cycle  13  Pass 1  IDiag  1:
 RMSU=  6.45D-08    CP:  1.00D+00  1.03D+00  4.98D-01  9.38D-01  8.64D-01
 E= -1991.35832662301     Delta-E=       -0.000000000842 Rises=F Damp=F
 DIIS: error= 4.81D-07 at cycle   6 NSaved=   6.
 NSaved= 6 IEnMin= 6 EnMin= -1991.35832662301     IErMin= 6 ErrMin= 4.81D-07
 ErrMax= 4.81D-07  0.00D+00 EMaxC= 1.00D-01 BMatC= 2.39D-10 BMatP= 9.31D-10
 IDIUse=1 WtCom= 1.00D+00 WtEn= 0.00D+00
 Coeff-Com:  0.741D-03-0.312D-01-0.260D-01 0.370D-01 0.411D+00 0.608D+00
 Coeff:      0.741D-03-0.312D-01-0.260D-01 0.370D-01 0.411D+00 0.608D+00
 Gap=     0.228 Goal=   None    Shift=    0.000
 RMSDP=3.51D-08 MaxDP=1.88D-06 DE=-8.42D-10 OVMax= 5.25D-06

 Cycle  14  Pass 1  IDiag  1:
 RMSU=  2.47D-08    CP:  1.00D+00  1.03D+00  4.99D-01  9.58D-01  9.47D-01
                    CP:  7.83D-01
 E= -1991.35832662322     Delta-E=       -0.000000000214 Rises=F Damp=F
 DIIS: error= 1.47D-07 at cycle   7 NSaved=   7.
 NSaved= 7 IEnMin= 7 EnMin= -1991.35832662322     IErMin= 7 ErrMin= 1.47D-07
 ErrMax= 1.47D-07  0.00D+00 EMaxC= 1.00D-01 BMatC= 1.56D-11 BMatP= 2.39D-10
 IDIUse=1 WtCom= 1.00D+00 WtEn= 0.00D+00
 Coeff-Com:  0.404D-03-0.150D-01-0.129D-01 0.584D-03 0.113D+00 0.266D+00
 Coeff-Com:  0.647D+00
 Coeff:      0.404D-03-0.150D-01-0.129D-01 0.584D-03 0.113D+00 0.266D+00
 Coeff:      0.647D+00
 Gap=     0.228 Goal=   None    Shift=    0.000
 RMSDP=9.24D-09 MaxDP=5.13D-07 DE=-2.14D-10 OVMax= 1.49D-06

 SCF Done:  E(RM062X) =  -1991.35832662     A.U. after   14 cycles
            NFock= 14  Conv=0.92D-08     -V/T= 2.0076
 KE= 1.976416128352D+03 PE=-1.463347592758D+04 EE= 5.675120713808D+03
 Leave Link  502 at Thu Feb  7 14:24:23 2019, MaxMem=   104857600 cpu:            3600.8 elap:             150.4
 (Enter /home/xinyan/g16/l601.exe)
 Copying SCF densities to generalized density rwf, IOpCl= 0 IROHF=0.

 **********************************************************************

            Population analysis using the SCF density.

 **********************************************************************

 Orbital symmetries:
       Occupied  (A) (A) (A) (A) (A) (A) (A) (A) (A) (A) (A) (A)
                 (A) (A) (A) (A) (A) (A) (A) (A) (A) (A) (A) (A)
                 (A) (A) (A) (A) (A) (A) (A) (A) (A) (A) (A) (A)
                 (A) (A) (A) (A) (A) (A) (A) (A) (A) (A) (A) (A)
                 (A) (A) (A) (A) (A) (A) (A) (A) (A) (A) (A) (A)
                 (A) (A) (A) (A) (A) (A) (A) (A) (A) (A) (A) (A)
                 (A) (A) (A) (A) (A) (A) (A) (A) (A) (A) (A) (A)
                 (A) (A) (A) (A) (A) (A) (A) (A) (A) (A) (A) (A)
                 (A) (A) (A) (A) (A) (A) (A) (A) (A) (A) (A) (A)
                 (A) (A) (A) (A) (A) (A) (A) (A) (A) (A) (A) (A)
                 (A) (A) (A) (A) (A) (A) (A) (A) (A) (A) (A) (A)
                 (A) (A) (A) (A) (A) (A) (A) (A)
       Virtual   (A) (A) (A) (A) (A) (A) (A) (A) (A) (A) (A) (A)
                 (A) (A) (A) (A) (A) (A) (A) (A) (A) (A) (A) (A)
                 (A) (A) (A) (A) (A) (A) (A) (A) (A) (A) (A) (A)
                 (A) (A) (A) (A) (A) (A) (A) (A) (A) (A) (A) (A)
                 (A) (A) (A) (A) (A) (A) (A) (A) (A) (A) (A) (A)
                 (A) (A) (A) (A) (A) (A) (A) (A) (A) (A) (A) (A)
                 (A) (A) (A) (A) (A) (A) (A) (A) (A) (A) (A) (A)
                 (A) (A) (A) (A) (A) (A) (A) (A) (A) (A) (A) (A)
                 (A) (A) (A) (A) (A) (A) (A) (A) (A) (A) (A) (A)
                 (A) (A) (A) (A) (A) (A) (A) (A) (A) (A) (A) (A)
                 (A) (A) (A) (A) (A) (A) (A) (A) (A) (A) (A) (A)
                 (A) (A) (A) (A) (A) (A) (A) (A) (A) (A) (A) (A)
                 (A) (A) (A) (A) (A) (A) (A) (A) (A) (A) (A) (A)
                 (A) (A) (A) (A) (A) (A) (A) (A) (A) (A) (A) (A)
                 (A) (A) (A) (A) (A) (A) (A) (A) (A) (A) (A) (A)
                 (A) (A) (A) (A) (A) (A) (A) (A) (A) (A) (A) (A)
                 (A) (A) (A) (A) (A) (A) (A) (A) (A) (A) (A) (A)
                 (A) (A) (A) (A) (A) (A) (A) (A) (A) (A) (A) (A)
                 (A) (A) (A) (A) (A) (A) (A) (A) (A) (A) (A) (A)
                 (A) (A) (A) (A) (A) (A) (A) (A) (A) (A) (A) (A)
                 (A) (A) (A) (A) (A) (A) (A) (A) (A) (A) (A) (A)
                 (A) (A) (A) (A) (A) (A) (A) (A) (A) (A) (A) (A)
                 (A) (A) (A) (A) (A) (A) (A) (A) (A) (A) (A) (A)
                 (A) (A) (A) (A) (A) (A) (A) (A) (A) (A) (A) (A)
                 (A) (A) (A) (A) (A) (A) (A) (A) (A) (A) (A) (A)
                 (A) (A) (A) (A) (A) (A) (A) (A) (A) (A) (A) (A)
                 (A) (A) (A) (A) (A) (A) (A) (A) (A) (A) (A) (A)
                 (A) (A) (A) (A) (A) (A) (A) (A) (A) (A) (A) (A)
                 (A) (A) (A) (A) (A) (A) (A) (A) (A) (A) (A) (A)
                 (A) (A) (A) (A) (A) (A) (A) (A) (A) (A) (A) (A)
                 (A) (A) (A) (A) (A) (A) (A) (A) (A) (A) (A) (A)
                 (A) (A) (A) (A) (A) (A) (A) (A) (A) (A) (A) (A)
                 (A) (A) (A) (A) (A) (A) (A) (A) (A) (A) (A) (A)
                 (A) (A) (A) (A) (A) (A) (A) (A) (A) (A) (A) (A)
                 (A) (A) (A) (A) (A) (A) (A) (A) (A) (A) (A) (A)
                 (A) (A) (A) (A) (A) (A) (A) (A) (A) (A) (A) (A)
                 (A) (A) (A) (A) (A) (A) (A) (A) (A) (A) (A) (A)
                 (A) (A) (A) (A) (A) (A) (A) (A) (A) (A) (A) (A)
                 (A) (A) (A) (A) (A) (A) (A) (A) (A) (A) (A) (A)
                 (A) (A) (A) (A) (A) (A) (A) (A) (A) (A) (A) (A)
                 (A) (A) (A) (A) (A) (A)
 The electronic state is 1-A.
 Alpha  occ. eigenvalues --  -90.14220 -19.61819 -19.61793 -19.58661 -19.56682
 Alpha  occ. eigenvalues --  -19.51202 -14.85185 -14.80441 -14.75848 -10.63422
 Alpha  occ. eigenvalues --  -10.62789 -10.62219 -10.62217 -10.60752 -10.59388
 Alpha  occ. eigenvalues --  -10.58408 -10.58003 -10.57967 -10.57174 -10.56895
 Alpha  occ. eigenvalues --  -10.56705 -10.55674 -10.55622 -10.55104 -10.54848
 Alpha  occ. eigenvalues --  -10.54811 -10.54800 -10.54734 -10.54583 -10.54408
 Alpha  occ. eigenvalues --  -10.54346 -10.54330 -10.53061 -10.51485 -10.51441
 Alpha  occ. eigenvalues --  -10.49675  -8.45196  -6.37414  -6.37390  -6.37232
 Alpha  occ. eigenvalues --   -1.22042  -1.13593  -1.13464  -1.10297  -1.09343
 Alpha  occ. eigenvalues --   -1.05853  -1.01785  -0.99282  -0.95763  -0.94996
 Alpha  occ. eigenvalues --   -0.93507  -0.90311  -0.88759  -0.85938  -0.85745
 Alpha  occ. eigenvalues --   -0.84827  -0.84723  -0.84217  -0.83060  -0.82722
 Alpha  occ. eigenvalues --   -0.76675  -0.76243  -0.75830  -0.74346  -0.72819
 Alpha  occ. eigenvalues --   -0.71668  -0.68329  -0.68219  -0.67939  -0.67228
 Alpha  occ. eigenvalues --   -0.66734  -0.65239  -0.64863  -0.63530  -0.60547
 Alpha  occ. eigenvalues --   -0.60405  -0.59776  -0.59075  -0.57804  -0.57609
 Alpha  occ. eigenvalues --   -0.57191  -0.56444  -0.55795  -0.55166  -0.54204
 Alpha  occ. eigenvalues --   -0.53565  -0.52669  -0.52479  -0.52460  -0.51904
 Alpha  occ. eigenvalues --   -0.51554  -0.51010  -0.50704  -0.49887  -0.49534
 Alpha  occ. eigenvalues --   -0.49163  -0.48849  -0.48208  -0.48139  -0.47991
 Alpha  occ. eigenvalues --   -0.47686  -0.47473  -0.46922  -0.46420  -0.46104
 Alpha  occ. eigenvalues --   -0.44886  -0.44740  -0.44158  -0.43857  -0.43266
 Alpha  occ. eigenvalues --   -0.42529  -0.42150  -0.41387  -0.41294  -0.41095
 Alpha  occ. eigenvalues --   -0.40906  -0.40494  -0.39992  -0.39796  -0.39285
 Alpha  occ. eigenvalues --   -0.39251  -0.39076  -0.38433  -0.37986  -0.37608
 Alpha  occ. eigenvalues --   -0.37386  -0.36750  -0.36549  -0.35766  -0.34914
 Alpha  occ. eigenvalues --   -0.34394  -0.33987  -0.31664  -0.31126  -0.29777
 Alpha  occ. eigenvalues --   -0.28875  -0.28606  -0.27661  -0.24788  -0.24368
 Alpha virt. eigenvalues --   -0.01529   0.00394   0.03542   0.03747   0.10132
 Alpha virt. eigenvalues --    0.10968   0.11644   0.12226   0.13164   0.13490
 Alpha virt. eigenvalues --    0.14221   0.14561   0.14756   0.15221   0.15599
 Alpha virt. eigenvalues --    0.16048   0.16834   0.16948   0.17193   0.17697
 Alpha virt. eigenvalues --    0.18055   0.18322   0.18460   0.18806   0.18955
 Alpha virt. eigenvalues --    0.19296   0.19750   0.19931   0.20116   0.20267
 Alpha virt. eigenvalues --    0.20647   0.20955   0.21073   0.21550   0.21647
 Alpha virt. eigenvalues --    0.22131   0.22546   0.22849   0.23372   0.23709
 Alpha virt. eigenvalues --    0.23877   0.24210   0.24563   0.24723   0.24896
 Alpha virt. eigenvalues --    0.25274   0.25478   0.25927   0.26327   0.26803
 Alpha virt. eigenvalues --    0.27076   0.27804   0.27862   0.28593   0.28991
 Alpha virt. eigenvalues --    0.29362   0.29496   0.29786   0.30779   0.30929
 Alpha virt. eigenvalues --    0.31297   0.31615   0.32137   0.32568   0.33108
 Alpha virt. eigenvalues --    0.33633   0.34558   0.35256   0.35477   0.35811
 Alpha virt. eigenvalues --    0.36541   0.37370   0.37701   0.37982   0.38841
 Alpha virt. eigenvalues --    0.39943   0.40386   0.40741   0.42814   0.43254
 Alpha virt. eigenvalues --    0.44431   0.44716   0.46999   0.48067   0.48815
 Alpha virt. eigenvalues --    0.49802   0.51182   0.52701   0.53424   0.54946
 Alpha virt. eigenvalues --    0.55151   0.55345   0.56014   0.56562   0.56900
 Alpha virt. eigenvalues --    0.57514   0.58299   0.58610   0.58825   0.59487
 Alpha virt. eigenvalues --    0.59534   0.59913   0.60386   0.60487   0.60556
 Alpha virt. eigenvalues --    0.61151   0.61427   0.62379   0.62608   0.62882
 Alpha virt. eigenvalues --    0.63752   0.64046   0.64543   0.64997   0.65590
 Alpha virt. eigenvalues --    0.66050   0.66585   0.66964   0.67461   0.67912
 Alpha virt. eigenvalues --    0.68366   0.69006   0.69077   0.69978   0.70633
 Alpha virt. eigenvalues --    0.71041   0.71455   0.71767   0.72940   0.73477
 Alpha virt. eigenvalues --    0.73601   0.74270   0.74732   0.74917   0.75761
 Alpha virt. eigenvalues --    0.76585   0.77288   0.77807   0.78671   0.79030
 Alpha virt. eigenvalues --    0.79480   0.79869   0.80216   0.80948   0.81280
 Alpha virt. eigenvalues --    0.81747   0.82095   0.82802   0.83925   0.84585
 Alpha virt. eigenvalues --    0.84843   0.85342   0.85715   0.86085   0.87091
 Alpha virt. eigenvalues --    0.87743   0.88433   0.88998   0.89434   0.89564
 Alpha virt. eigenvalues --    0.89743   0.90119   0.90566   0.91049   0.91257
 Alpha virt. eigenvalues --    0.91684   0.92256   0.92805   0.92995   0.93245
 Alpha virt. eigenvalues --    0.93623   0.94198   0.94691   0.95066   0.95329
 Alpha virt. eigenvalues --    0.95821   0.96106   0.96657   0.96765   0.97010
 Alpha virt. eigenvalues --    0.97278   0.97896   0.98104   0.98378   0.98446
 Alpha virt. eigenvalues --    0.99157   0.99542   0.99783   1.00484   1.00845
 Alpha virt. eigenvalues --    1.01316   1.01885   1.02247   1.02716   1.03028
 Alpha virt. eigenvalues --    1.03195   1.04206   1.04515   1.04600   1.05730
 Alpha virt. eigenvalues --    1.05949   1.06999   1.07650   1.08325   1.09144
 Alpha virt. eigenvalues --    1.10289   1.10735   1.11587   1.11686   1.11883
 Alpha virt. eigenvalues --    1.13377   1.13585   1.14672   1.15050   1.15617
 Alpha virt. eigenvalues --    1.16876   1.17724   1.18361   1.18615   1.18949
 Alpha virt. eigenvalues --    1.19905   1.20812   1.21069   1.21714   1.22112
 Alpha virt. eigenvalues --    1.22469   1.23626   1.24106   1.24857   1.25597
 Alpha virt. eigenvalues --    1.26040   1.27831   1.28777   1.29424   1.30473
 Alpha virt. eigenvalues --    1.31397   1.31467   1.32139   1.32702   1.33699
 Alpha virt. eigenvalues --    1.33933   1.34408   1.35166   1.36234   1.37074
 Alpha virt. eigenvalues --    1.37240   1.38382   1.39091   1.40562   1.41287
 Alpha virt. eigenvalues --    1.41792   1.42399   1.43642   1.44521   1.46272
 Alpha virt. eigenvalues --    1.47383   1.47931   1.48425   1.49182   1.49828
 Alpha virt. eigenvalues --    1.51076   1.51886   1.52434   1.52813   1.54441
 Alpha virt. eigenvalues --    1.54867   1.55091   1.55988   1.57181   1.57232
 Alpha virt. eigenvalues --    1.57478   1.58482   1.60497   1.60990   1.61231
 Alpha virt. eigenvalues --    1.61889   1.62798   1.63570   1.65576   1.67446
 Alpha virt. eigenvalues --    1.69036   1.69667   1.70203   1.72095   1.72658
 Alpha virt. eigenvalues --    1.74253   1.74734   1.75905   1.77229   1.77871
 Alpha virt. eigenvalues --    1.78530   1.79514   1.80430   1.80967   1.81918
 Alpha virt. eigenvalues --    1.84342   1.84539   1.85186   1.85789   1.85861
 Alpha virt. eigenvalues --    1.86331   1.87093   1.87606   1.87934   1.88943
 Alpha virt. eigenvalues --    1.89909   1.90068   1.90328   1.90902   1.91909
 Alpha virt. eigenvalues --    1.92690   1.93773   1.94236   1.94691   1.94863
 Alpha virt. eigenvalues --    1.95404   1.95937   1.96533   1.97104   1.97721
 Alpha virt. eigenvalues --    1.98693   1.99071   1.99295   2.00015   2.00890
 Alpha virt. eigenvalues --    2.01821   2.02151   2.02353   2.02741   2.04166
 Alpha virt. eigenvalues --    2.04584   2.06108   2.06293   2.07012   2.07385
 Alpha virt. eigenvalues --    2.07651   2.08394   2.08814   2.09245   2.09453
 Alpha virt. eigenvalues --    2.09875   2.10626   2.11784   2.11980   2.12909
 Alpha virt. eigenvalues --    2.12942   2.14246   2.14391   2.15219   2.15879
 Alpha virt. eigenvalues --    2.16242   2.16599   2.17191   2.18774   2.19031
 Alpha virt. eigenvalues --    2.19938   2.20311   2.20728   2.21491   2.22349
 Alpha virt. eigenvalues --    2.23146   2.23418   2.23659   2.23767   2.24568
 Alpha virt. eigenvalues --    2.25429   2.25819   2.26372   2.27476   2.28394
 Alpha virt. eigenvalues --    2.28996   2.30184   2.30793   2.30955   2.31452
 Alpha virt. eigenvalues --    2.32255   2.33968   2.34612   2.35176   2.35612
 Alpha virt. eigenvalues --    2.36048   2.37446   2.37539   2.38562   2.38753
 Alpha virt. eigenvalues --    2.38997   2.40341   2.40969   2.41468   2.42727
 Alpha virt. eigenvalues --    2.43329   2.44422   2.45399   2.46066   2.46978
 Alpha virt. eigenvalues --    2.49511   2.50571   2.51817   2.52242   2.52767
 Alpha virt. eigenvalues --    2.54276   2.54472   2.55991   2.56975   2.59952
 Alpha virt. eigenvalues --    2.60896   2.61837   2.62322   2.63200   2.63874
 Alpha virt. eigenvalues --    2.64665   2.64813   2.65702   2.67220   2.68318
 Alpha virt. eigenvalues --    2.68854   2.69590   2.70312   2.71693   2.72773
 Alpha virt. eigenvalues --    2.73537   2.74454   2.76240   2.76690   2.77527
 Alpha virt. eigenvalues --    2.79531   2.80238   2.80618   2.80773   2.81591
 Alpha virt. eigenvalues --    2.83485   2.85423   2.86156   2.87110   2.88376
 Alpha virt. eigenvalues --    2.89206   2.91034   2.92535   2.93952   2.96901
 Alpha virt. eigenvalues --    2.99675   3.00336   3.03128   3.05241   3.10564
 Alpha virt. eigenvalues --    3.14745   3.16352   3.23871   3.41303   3.42790
 Alpha virt. eigenvalues --    3.96514   4.02106   4.04747   4.09416   4.10960
 Alpha virt. eigenvalues --    4.15683   4.17087   4.17980   4.18668   4.19654
 Alpha virt. eigenvalues --    4.21047   4.23098   4.24458   4.26511   4.27579
 Alpha virt. eigenvalues --    4.29640   4.32618   4.33199   4.34591   4.35131
 Alpha virt. eigenvalues --    4.40038   4.40802   4.41883   4.43729   4.47374
 Alpha virt. eigenvalues --    4.49685   4.55708   4.58170   4.59265   4.61412
 Alpha virt. eigenvalues --    4.63872   4.66147   4.73715   4.75633   4.76795
 Alpha virt. eigenvalues --    4.80207
          Condensed to atoms (all electrons):
 Mulliken charges:
               1
     1  C   -0.306283
     2  C   -0.307177
     3  C   -0.309170
     4  C   -0.060256
     5  C    0.056403
     6  C   -0.311329
     7  H    0.174066
     8  H    0.162884
     9  H    0.165586
    10  H    0.150967
    11  H    0.163460
    12  H    0.209099
    13  H    0.173199
    14  H    0.193260
    15  H    0.163569
    16  H    0.154350
    17  N   -0.430685
    18  C    0.067339
    19  C    0.064039
    20  C   -0.201562
    21  H    0.206352
    22  C   -0.209355
    23  H    0.245063
    24  C    0.445831
    25  H    0.192160
    26  H    0.211485
    27  N   -0.525834
    28  C   -0.170558
    29  H    0.169760
    30  H    0.228881
    31  C   -0.154777
    32  H    0.165311
    33  H    0.206339
    34  N   -0.815077
    35  S    1.252901
    36  O   -0.611597
    37  O   -0.605665
    38  C    0.083818
    39  C   -0.184998
    40  C   -0.189890
    41  C   -0.171337
    42  C   -0.163750
    43  C   -0.212013
    44  H    0.212543
    45  H    0.140486
    46  H    0.154934
    47  H    0.158596
    48  H    0.152459
    49  O   -0.551179
    50  H    0.448042
    51  C    0.723910
    52  O   -0.721570
    53  O   -0.717936
    54  H    0.444128
    55  C   -0.338373
    56  H    0.148541
    57  H    0.151226
    58  C   -0.090810
    59  H    0.139643
    60  H    0.147895
    61  C   -0.663385
    62  H    0.274190
    63  H    0.196390
    64  H    0.217688
    65  C   -0.292033
    66  H    0.134867
    67  H    0.146167
    68  C   -0.473157
    69  H    0.148880
    70  H    0.154108
    71  H    0.145314
    72  C   -0.331955
    73  H    0.187011
    74  H    0.162884
    75  C   -0.343031
    76  H    0.197725
    77  H    0.170993
 Sum of Mulliken charges =  -0.00000
 Mulliken charges with hydrogens summed into heavy atoms:
               1
     1  C    0.008145
     2  C    0.021293
     3  C    0.019245
     4  C    0.148843
     5  C    0.229602
     6  C    0.045499
    17  N   -0.430685
    18  C    0.273690
    19  C    0.309102
    20  C   -0.009402
    22  C    0.002130
    24  C    0.445831
    27  N   -0.525834
    28  C    0.228083
    31  C    0.216874
    34  N   -0.367036
    35  S    1.252901
    36  O   -0.611597
    37  O   -0.605665
    38  C    0.083818
    39  C    0.027546
    40  C   -0.049404
    41  C   -0.016403
    42  C   -0.005154
    43  C   -0.059554
    49  O   -0.551179
    51  C    0.723910
    52  O   -0.721570
    53  O   -0.273808
    55  C   -0.038605
    58  C    0.196729
    61  C    0.024884
    65  C   -0.010999
    68  C   -0.024856
    72  C    0.017940
    75  C    0.025686
 Electronic spatial extent (au):  <R**2>=          14338.1526
 Charge=             -0.0000 electrons
 Dipole moment (field-independent basis, Debye):
    X=             -2.6175    Y=             -1.9597    Z=             -6.3288  Tot=              7.1236
 Quadrupole moment (field-independent basis, Debye-Ang):
   XX=           -205.8841   YY=           -222.6045   ZZ=           -219.9968
   XY=            -12.4617   XZ=             -5.2459   YZ=             10.0685
 Traceless Quadrupole moment (field-independent basis, Debye-Ang):
   XX=             10.2777   YY=             -6.4427   ZZ=             -3.8350
   XY=            -12.4617   XZ=             -5.2459   YZ=             10.0685
 Octapole moment (field-independent basis, Debye-Ang**2):
  XXX=             13.6885  YYY=            -52.1951  ZZZ=             11.5219  XYY=              9.3502
  XXY=            -24.9224  XXZ=            -38.8917  XZZ=            -23.9762  YZZ=             13.1642
  YYZ=             18.3989  XYZ=            -19.1963
 Hexadecapole moment (field-independent basis, Debye-Ang**3):
 XXXX=          -9827.7359 YYYY=          -5441.2686 ZZZZ=          -3547.0455 XXXY=           -204.2650
 XXXZ=             -9.8294 YYYX=            -73.7396 YYYZ=             54.9192 ZZZX=           -104.3149
 ZZZY=             -5.0030 XXYY=          -2555.4553 XXZZ=          -2318.8276 YYZZ=          -1602.0413
 XXYZ=             46.3443 YYXZ=             50.0340 ZZXY=            -52.1439
 N-N= 4.990580758798D+03 E-N=-1.463347596950D+04  KE= 1.976416128352D+03
 No NMR shielding tensors so no spin-rotation constants.
 Leave Link  601 at Thu Feb  7 14:24:24 2019, MaxMem=   104857600 cpu:              25.0 elap:               1.2
 (Enter /home/xinyan/g16/l701.exe)
 ... and contract with generalized density number  0.
 Compute integral first derivatives.
 R6Disp: Adding Grimme-D3 dispersion energy 1st derivatives to the gradient.
 Leave Link  701 at Thu Feb  7 14:24:26 2019, MaxMem=   104857600 cpu:              25.7 elap:               1.1
 (Enter /home/xinyan/g16/l702.exe)
 L702 exits ... SP integral derivatives will be done elsewhere.
 Leave Link  702 at Thu Feb  7 14:24:26 2019, MaxMem=   104857600 cpu:               1.4 elap:               0.1
 (Enter /home/xinyan/g16/l703.exe)
 Integral derivatives from FoFJK, PRISM(SPDF).
 Compute integral first derivatives, UseDBF=F ICtDFT=           0.
 Calling FoFJK, ICntrl=      2127 FMM=T ISym2X=0 I1Cent= 0 IOpClX= 0 NMat=1 NMatS=1 NMatT=0.
 FoFJK:  IHMeth= 1 ICntrl=    2127 DoSepK=F KAlg= 0 I1Cent=           0 FoldK=F
 IRaf=         0 NMat=       1 IRICut=       1 DoRegI=T DoRafI=F ISym2E= 0 IDoP0=0 IntGTp=1.
 FoFCou: FMM=T IPFlag=           0 FMFlag=      100000 FMFlg1=        2001
         NFxFlg=           0 DoJE=F BraDBF=F KetDBF=F FulRan=T
         wScrn=  0.000000 ICntrl=      2127 IOpCl=  0 I1Cent=           0 NGrid=           0
         NMat0=    1 NMatS0=      1 NMatT0=    0 NMatD0=    1 NMtDS0=    0 NMtDT0=    0
 Symmetry not used in FoFCou.
 FMM levels:  10  Number of levels for PrismC:   9
 Leave Link  703 at Thu Feb  7 14:24:59 2019, MaxMem=   104857600 cpu:             801.6 elap:              33.5
 (Enter /home/xinyan/g16/l716.exe)
 Dipole        =-1.02980825D+00-7.71018311D-01-2.48995868D+00
 ***** Axes restored to original set *****
 -------------------------------------------------------------------
 Center     Atomic                   Forces (Hartrees/Bohr)
 Number     Number              X              Y              Z
 -------------------------------------------------------------------
      1        6           0.000010085   -0.000014067   -0.000009189
      2        6           0.000028100    0.000007830    0.000014994
      3        6           0.000016498    0.000007614   -0.000000930
      4        6           0.000011956    0.000013255   -0.000022903
      5        6           0.000020048   -0.000011209    0.000025548
      6        6          -0.000011123   -0.000011786   -0.000002787
      7        1           0.000013113    0.000012745   -0.000034169
      8        1           0.000005859   -0.000000070   -0.000035349
      9        1           0.000014553    0.000011107   -0.000022715
     10        1           0.000014565    0.000034054   -0.000022213
     11        1           0.000000935   -0.000010526   -0.000003416
     12        1           0.000005241   -0.000049198    0.000033919
     13        1           0.000005143    0.000001640   -0.000013166
     14        1           0.000002697   -0.000030736   -0.000004048
     15        1           0.000021528   -0.000015597    0.000003071
     16        1           0.000010930    0.000012144   -0.000024722
     17        7           0.000008627    0.000016825   -0.000020481
     18        6          -0.000003736   -0.000016693   -0.000015150
     19        6          -0.000009189    0.000011405    0.000000304
     20        6           0.000014469   -0.000006991   -0.000006254
     21        1           0.000013748    0.000000625   -0.000012190
     22        6           0.000018661    0.000004956    0.000022219
     23        1          -0.000004748   -0.000002270   -0.000013663
     24        6           0.000006512   -0.000025528    0.000017671
     25        1           0.000024116    0.000007115   -0.000009398
     26        1           0.000014847    0.000013285    0.000017570
     27        7           0.000017853    0.000027756    0.000001054
     28        6           0.000006337    0.000021531    0.000041264
     29        1           0.000004668    0.000032081    0.000046630
     30        1           0.000008898    0.000042198    0.000027466
     31        6           0.000015986   -0.000006207   -0.000008213
     32        1           0.000013955   -0.000003678    0.000020070
     33        1           0.000000080    0.000041099    0.000027138
     34        7           0.000034666    0.000018257   -0.000002968
     35       16           0.000006981    0.000005123   -0.000198135
     36        8          -0.000011725   -0.000057025   -0.000025145
     37        8           0.000040171   -0.000024444    0.000003481
     38        6           0.000026851   -0.000001571    0.000045500
     39        6          -0.000016926    0.000052484    0.000011146
     40        6           0.000002066    0.000019021    0.000017006
     41        6          -0.000042837    0.000021110    0.000024757
     42        6          -0.000030740    0.000006497    0.000069016
     43        6          -0.000032882    0.000021960    0.000034080
     44        1           0.000003360   -0.000001573   -0.000022655
     45        1          -0.000018181    0.000052912    0.000010855
     46        1          -0.000035852    0.000034458    0.000041630
     47        1          -0.000048758    0.000019755    0.000063021
     48        1          -0.000039758    0.000002843    0.000070499
     49        8           0.000012199    0.000172156   -0.000069937
     50        1          -0.000005775   -0.000052528    0.000094671
     51        6          -0.000046268   -0.000220116   -0.000017305
     52        8           0.000113571    0.000112015    0.000197068
     53        8           0.000123444    0.000173728   -0.000117406
     54        1          -0.000165819   -0.000107660    0.000054249
     55        6          -0.000048770   -0.000013116    0.000062285
     56        1           0.000003028   -0.000123603   -0.000146639
     57        1          -0.000178469    0.000082015   -0.000036658
     58        6          -0.000052795    0.000028332    0.000056783
     59        1           0.000006904    0.000025540    0.000012825
     60        1          -0.000018373   -0.000049688    0.000031362
     61        6          -0.000044391   -0.000007952    0.000016241
     62        1           0.000013843    0.000030169   -0.000009785
     63        1          -0.000045161   -0.000021521   -0.000017560
     64        1          -0.000023908   -0.000018909    0.000006544
     65        6          -0.000069544   -0.000096453   -0.000230220
     66        1          -0.000084378    0.000229781    0.000230817
     67        1           0.000118353   -0.000015825    0.000064934
     68        6           0.000178157    0.000002900    0.000165106
     69        1           0.000044499   -0.000096194   -0.000083374
     70        1           0.000126595   -0.000412599   -0.000375943
     71        1          -0.000155444   -0.000065713   -0.000185024
     72        6           0.000010283    0.000046028    0.000035891
     73        1          -0.000012311    0.000051213    0.000036318
     74        1           0.000009580    0.000022535    0.000058509
     75        6          -0.000017734   -0.000016126    0.000020498
     76        1           0.000039509    0.000051119   -0.000020591
     77        1           0.000011533    0.000005959    0.000006294
 -------------------------------------------------------------------
 Cartesian Forces:  Max     0.000412599 RMS     0.000071142
 Z-matrix is all fixed cartesians, so copy forces.
 Leave Link  716 at Thu Feb  7 14:24:59 2019, MaxMem=   104857600 cpu:               2.4 elap:               0.1
 (Enter /home/xinyan/g16/l103.exe)

 GradGradGradGradGradGradGradGradGradGradGradGradGradGradGradGradGradGrad
 Berny optimization.
 Search for a local minimum.
 Step number   1 out of a maximum of    2
 All quantities printed in internal units (Hartrees-Bohrs-Radians)
 Second derivative matrix not updated -- first step.
 ITU=  0
     Eigenvalues ---   -0.00000   0.00000   0.00000   0.00000   0.00000
     Eigenvalues ---    0.00000   0.00006   0.00012   0.00018   0.00021
     Eigenvalues ---    0.00037   0.00038   0.00084   0.00094   0.00115
     Eigenvalues ---    0.00136   0.00140   0.00204   0.00234   0.00294
     Eigenvalues ---    0.00392   0.00406   0.00450   0.00499   0.00590
     Eigenvalues ---    0.00608   0.00614   0.00692   0.00710   0.00848
     Eigenvalues ---    0.00965   0.01122   0.01162   0.01473   0.01655
     Eigenvalues ---    0.01678   0.01889   0.01930   0.02043   0.02158
     Eigenvalues ---    0.02294   0.02305   0.02443   0.02533   0.02875
     Eigenvalues ---    0.02969   0.03073   0.03111   0.03218   0.03449
     Eigenvalues ---    0.03544   0.03716   0.03896   0.04199   0.04320
     Eigenvalues ---    0.04368   0.04803   0.04843   0.04869   0.04925
     Eigenvalues ---    0.05025   0.05069   0.05110   0.05113   0.05157
     Eigenvalues ---    0.05185   0.05263   0.05372   0.05468   0.05596
     Eigenvalues ---    0.05645   0.05668   0.05708   0.05743   0.05791
     Eigenvalues ---    0.06016   0.06149   0.06287   0.06516   0.06567
     Eigenvalues ---    0.06832   0.06851   0.06971   0.07025   0.07090
     Eigenvalues ---    0.07149   0.07246   0.07267   0.07329   0.07383
     Eigenvalues ---    0.07644   0.07802   0.07861   0.07954   0.08085
     Eigenvalues ---    0.08466   0.08544   0.08816   0.09025   0.09716
     Eigenvalues ---    0.09766   0.10161   0.10462   0.11256   0.11509
     Eigenvalues ---    0.11841   0.12128   0.12610   0.12850   0.12900
     Eigenvalues ---    0.12931   0.13028   0.13359   0.13670   0.13935
     Eigenvalues ---    0.14132   0.14421   0.14653   0.15659   0.15770
     Eigenvalues ---    0.16012   0.16110   0.16874   0.16953   0.16970
     Eigenvalues ---    0.17255   0.17304   0.17770   0.17880   0.19571
     Eigenvalues ---    0.19680   0.20337   0.20611   0.21588   0.21690
     Eigenvalues ---    0.23069   0.23349   0.23833   0.24805   0.26385
     Eigenvalues ---    0.27463   0.28601   0.29530   0.30050   0.30652
     Eigenvalues ---    0.31430   0.32270   0.34027   0.34759   0.36307
     Eigenvalues ---    0.36699   0.39425   0.39999   0.41201   0.43089
     Eigenvalues ---    0.43545   0.44553   0.48123   0.49029   0.50145
     Eigenvalues ---    0.52958   0.56797   0.57610   0.60133   0.64832
     Eigenvalues ---    0.65377   0.66342   0.67373   0.68234   0.68767
     Eigenvalues ---    0.70491   0.77599   0.78128   0.78449   0.81212
     Eigenvalues ---    0.82983   0.83339   0.85554   0.86439   0.87287
     Eigenvalues ---    0.87913   0.88681   0.90518   0.91308   0.93960
     Eigenvalues ---    0.94371   0.94781   0.94925   0.95659   0.96352
     Eigenvalues ---    0.97894   0.97965   0.99480   1.00388   1.00545
     Eigenvalues ---    1.00782   1.03910   1.04286   1.04540   1.06130
     Eigenvalues ---    1.06340   1.06785   1.07145   1.08780   1.09124
     Eigenvalues ---    1.13079   1.15718   1.15749   1.16965   1.19832
     Eigenvalues ---    1.21196   1.24136   1.26131   1.27729   1.37137
     Eigenvalues ---    1.47258   1.53549   1.57179   1.58252   1.58862
     Eigenvalues ---    1.59594   1.67012   1.72959   1.84192   2.34288
 Eigenvalue     1 is  -2.22D-16 should be greater than     0.000000 Eigenvector:
                          Y46       Y41       Y47       Y45       Y42
   1                    0.13544   0.13544   0.13544   0.13544   0.13544
                          Y40       Y43       Y39       Y48       Y44
   1                    0.13544   0.13544   0.13544   0.13544   0.13544
 Eigenvalue     2 is   5.45D-08 Eigenvector:
                          Y46       X45       X46       X40       X52
   1                    0.15847  -0.15745  -0.14027  -0.13890  -0.13878
                          Y47       Y73       Y41       X44       X41
   1                    0.13619  -0.13375   0.13374  -0.13311  -0.12933
 Eigenvalue     3 is   6.81D-08 Eigenvector:
                          Y46       Z47       X54       Z46       X53
   1                    0.19996  -0.18799  -0.18163  -0.17497  -0.16375
                          Y47       Z42       Y41       Z41       Z69
   1                    0.16328  -0.16150   0.15848  -0.15436   0.14591
 Eigenvalue     4 is   1.60D-07 Eigenvector:
                          Z77       Z76       Z57       Z71       Z75
   1                    0.18691   0.18090  -0.17203  -0.16911   0.16077
                          Z53       Z54       Y64       Z33       Z66
   1                   -0.16061  -0.15956  -0.15546   0.15002  -0.14555
 Eigenvalue     5 is   2.51D-07 Eigenvector:
                          Z47       Y46       Y64       Y9        Y47
   1                    0.18219   0.17638   0.16057  -0.15808   0.14937
                          Z42       Z48       Y7        Y71       Z46
   1                    0.14575   0.14286  -0.14059  -0.14016   0.13878
 Eigenvalue     6 is   4.70D-07 Eigenvector:
                          Y69       Z54       Y48       Y59       Y71
   1                    0.25455  -0.24518  -0.23262  -0.23044   0.20160
                          Y66       Y45       Z53       Z70       Y68
   1                    0.18756   0.18570  -0.18250   0.18040   0.17401
 Eigenvalue     7 is   6.12D-05 Eigenvector:
                          X69       X45       X46       X70       Z70
   1                    0.27040  -0.23827  -0.22539   0.22298   0.21434
                          Z69       X68       X67       X40       X41
   1                    0.21173   0.20707   0.20126  -0.18328  -0.17632
 Quadratic step=3.568D+00 exceeds max=3.000D-01 adjusted using Lamda=-1.296D-03.
 Angle between NR and scaled steps=  21.09 degrees.
 Angle between quadratic step and forces=  64.39 degrees.
 Linear search not attempted -- first point.
 B after Tr=    -0.000573    0.000685    0.000863
         Rot=    1.000000   -0.000143    0.000065   -0.000118 Ang=  -0.02 deg.
 Variable       Old X    -DE/DX   Delta X   Delta X   Delta X     New X
                                 (Linear)    (Quad)   (Total)
    X1       -9.25854   0.00001   0.00000   0.00721   0.00663  -9.25191
    Y1        0.46894  -0.00001   0.00000  -0.00130  -0.00256   0.46638
    Z1       -0.81158  -0.00001   0.00000  -0.00820  -0.00840  -0.81998
    X2       -9.61763   0.00003   0.00000   0.00915   0.00934  -9.60829
    Y2       -1.93550   0.00001   0.00000   0.00124   0.00034  -1.93515
    Z2       -2.38238   0.00001   0.00000  -0.01263  -0.01356  -2.39594
    X3       -7.10416   0.00002   0.00000   0.01062   0.01117  -7.09299
    Y3       -2.79761   0.00001   0.00000   0.00154   0.00157  -2.79604
    Z3       -3.53982  -0.00000   0.00000  -0.00989  -0.01074  -3.55055
    X4       -5.21642   0.00001   0.00000   0.00717   0.00755  -5.20887
    Y4       -3.24946   0.00001   0.00000  -0.00135  -0.00149  -3.25095
    Z4       -1.41178  -0.00002   0.00000  -0.00738  -0.00811  -1.41989
    X5       -4.77381   0.00002   0.00000   0.00587   0.00547  -4.76834
    Y5       -0.80000  -0.00001   0.00000  -0.00265  -0.00313  -0.80313
    Z5        0.13387   0.00003   0.00000  -0.00518  -0.00516   0.12870
    X6       -7.27938  -0.00001   0.00000   0.00463   0.00387  -7.27550
    Y6        0.10503  -0.00001   0.00000  -0.00479  -0.00618   0.09885
    Z6        1.26997  -0.00000   0.00000  -0.00640  -0.00645   1.26352
    X7       -7.34164   0.00001   0.00000   0.01162   0.01271  -7.32893
    Y7       -4.51936   0.00001   0.00000   0.00299   0.00328  -4.51607
    Z7       -4.66354  -0.00003   0.00000  -0.01233  -0.01371  -4.67725
    X8      -10.36819   0.00001   0.00000   0.00636   0.00676 -10.36143
    Y8       -3.44951  -0.00000   0.00000  -0.00033  -0.00174  -3.45125
    Z8       -1.17853  -0.00004   0.00000  -0.01636  -0.01783  -1.19635
    X9      -11.00180   0.00001   0.00000   0.01179   0.01210 -10.98969
    Y9       -1.61689   0.00001   0.00000   0.00421   0.00342  -1.61347
    Z9       -3.88584  -0.00002   0.00000  -0.01444  -0.01546  -3.90130
   X10       -8.64871   0.00001   0.00000   0.00855   0.00777  -8.64094
   Y10        2.00821   0.00003   0.00000   0.00106   0.00030   2.00851
   Z10       -2.06190  -0.00002   0.00000  -0.00482  -0.00450  -2.06640
   X11      -11.06045   0.00000   0.00000   0.00614   0.00532 -11.05513
   Y11        1.04428  -0.00001   0.00000  -0.00296  -0.00489   1.03939
   Z11        0.02672  -0.00000   0.00000  -0.00929  -0.00956   0.01716
   X12       -5.95536   0.00001   0.00000   0.00457   0.00512  -5.95024
   Y12       -4.70411  -0.00005   0.00000  -0.00172  -0.00240  -4.70651
   Z12       -0.14128   0.00003   0.00000  -0.00902  -0.01027  -0.15154
   X13       -4.14347   0.00001   0.00000   0.00667   0.00610  -4.13737
   Y13        0.65184   0.00000   0.00000  -0.00115  -0.00109   0.65075
   Z13       -1.20640  -0.00001   0.00000  -0.00321  -0.00269  -1.20909
   X14       -7.95499   0.00000   0.00000   0.00318   0.00257  -7.95242
   Y14       -1.27651  -0.00003   0.00000  -0.00738  -0.00932  -1.28583
   Z14        2.65484  -0.00000   0.00000  -0.00960  -0.01014   2.64470
   X15       -6.93118   0.00002   0.00000   0.00368   0.00237  -6.92881
   Y15        1.89152  -0.00002   0.00000  -0.00658  -0.00817   1.88336
   Z15        2.25541   0.00000   0.00000  -0.00281  -0.00231   2.25310
   X16       -6.42142   0.00001   0.00000   0.01295   0.01331  -6.40811
   Y16       -1.30077   0.00001   0.00000   0.00275   0.00330  -1.29748
   Z16       -4.80544  -0.00002   0.00000  -0.00726  -0.00759  -4.81303
   X17       -2.71331   0.00001   0.00000   0.00826   0.00896  -2.70434
   Y17       -4.16337   0.00002   0.00000  -0.00219  -0.00150  -4.16487
   Z17       -2.24790  -0.00002   0.00000  -0.00293  -0.00361  -2.25151
   X18       -1.38445  -0.00000   0.00000   0.01028   0.01089  -1.37356
   Y18       -2.83499  -0.00002   0.00000  -0.00551  -0.00401  -2.83899
   Z18       -4.00123  -0.00002   0.00000  -0.00391  -0.00403  -4.00526
   X19       -1.42860  -0.00001   0.00000   0.00653   0.00739  -1.42121
   Y19       -5.70828   0.00001   0.00000   0.00238   0.00292  -5.70536
   Z19       -0.64585   0.00000   0.00000   0.00284   0.00189  -0.64396
   X20        1.18004   0.00001   0.00000   0.01065   0.01131   1.19135
   Y20       -2.93792  -0.00001   0.00000  -0.00397  -0.00183  -2.93975
   Z20       -4.14744  -0.00001   0.00000   0.00101   0.00119  -4.14625
   X21       -2.48174   0.00001   0.00000   0.01159   0.01208  -2.46966
   Y21       -1.62702   0.00000   0.00000  -0.00915  -0.00755  -1.63457
   Z21       -5.23649  -0.00001   0.00000  -0.00867  -0.00860  -5.24508
   X22        1.13597   0.00002   0.00000   0.00677   0.00767   1.14364
   Y22       -5.88461   0.00000   0.00000   0.00546   0.00660  -5.87801
   Z22       -0.65352   0.00002   0.00000   0.00899   0.00833  -0.64520
   X23       -2.56910  -0.00000   0.00000   0.00454   0.00544  -2.56366
   Y23       -6.69214  -0.00000   0.00000   0.00440   0.00427  -6.68788
   Z23        0.74438  -0.00001   0.00000   0.00263   0.00126   0.74564
   X24        2.57016   0.00001   0.00000   0.00832   0.00906   2.57922
   Y24       -4.30731  -0.00003   0.00000   0.00297   0.00492  -4.30239
   Z24       -2.28526   0.00002   0.00000   0.00796   0.00793  -2.27734
   X25        2.13382   0.00002   0.00000   0.01241   0.01299   2.14681
   Y25       -1.82763   0.00001   0.00000  -0.00679  -0.00401  -1.83164
   Z25       -5.57401  -0.00001   0.00000  -0.00008   0.00054  -5.57347
   X26        2.02684   0.00001   0.00000   0.00513   0.00611   2.03296
   Y26       -7.04301   0.00001   0.00000   0.01016   0.01110  -7.03191
   Z26        0.77307   0.00002   0.00000   0.01386   0.01298   0.78604
   X27        5.06494   0.00002   0.00000   0.00760   0.00827   5.07321
   Y27       -4.12181   0.00003   0.00000   0.00732   0.00979  -4.11203
   Z27       -2.08650   0.00000   0.00000   0.01326   0.01360  -2.07290
   X28        6.40623   0.00001   0.00000   0.00327   0.00386   6.41009
   Y28       -5.04827   0.00002   0.00000   0.01931   0.02145  -5.02682
   Z28        0.16480   0.00004   0.00000   0.02084   0.02110   0.18590
   X29        6.17491   0.00000   0.00000   0.00446   0.00551   6.18041
   Y29       -7.09195   0.00003   0.00000   0.02012   0.02215  -7.06980
   Z29        0.36332   0.00005   0.00000   0.03046   0.03011   0.39343
   X30        5.63354   0.00001   0.00000  -0.00121  -0.00107   5.63247
   Y30       -4.06408   0.00004   0.00000   0.02687   0.02836  -4.03572
   Z30        1.82464   0.00003   0.00000   0.01429   0.01473   1.83938
   X31        6.46738   0.00002   0.00000   0.00787   0.00821   6.47559
   Y31       -2.06477  -0.00001   0.00000   0.00364   0.00679  -2.05798
   Z31       -3.31775  -0.00001   0.00000   0.00745   0.00856  -3.30919
   X32        6.96389   0.00001   0.00000   0.01075   0.01147   6.97536
   Y32       -2.60671  -0.00000   0.00000  -0.00370   0.00013  -2.60658
   Z32       -5.25599   0.00002   0.00000   0.01025   0.01127  -5.24472
   X33        5.28222   0.00000   0.00000   0.00688   0.00683   5.28905
   Y33       -0.37250   0.00004   0.00000   0.00299   0.00587  -0.36663
   Z33       -3.33183   0.00003   0.00000  -0.00057   0.00088  -3.33096
   X34       -2.68532   0.00003   0.00000   0.00382   0.00325  -2.68207
   Y34       -1.03557   0.00002   0.00000  -0.00384  -0.00433  -1.03990
   Z34        1.90566  -0.00000   0.00000  -0.00307  -0.00285   1.90280
   X35       -2.82763   0.00001   0.00000   0.00121   0.00069  -2.82694
   Y35       -2.69794   0.00001   0.00000  -0.00878  -0.01004  -2.70798
   Z35        4.49745  -0.00020   0.00000  -0.00680  -0.00707   4.49038
   X36       -5.11256  -0.00001   0.00000   0.00476   0.00463  -5.10793
   Y36       -4.26220  -0.00006   0.00000  -0.01354  -0.01530  -4.27751
   Z36        4.39906  -0.00003   0.00000  -0.01475  -0.01577   4.38328
   X37       -0.40274   0.00004   0.00000   0.00315   0.00289  -0.39985
   Y37       -3.98350  -0.00002   0.00000  -0.00415  -0.00494  -3.98845
   Z37        4.86038   0.00000   0.00000  -0.00306  -0.00338   4.85699
   X38       -1.33700   0.00003   0.00000  -0.00797  -0.00970  -1.34670
   Y38        4.64504  -0.00000   0.00000   0.01589   0.01613   4.66117
   Z38        0.46493   0.00005   0.00000   0.01366   0.01568   0.48061
   X39       -0.40034  -0.00002   0.00000  -0.01244  -0.01367  -0.41400
   Y39        3.76250   0.00005   0.00000   0.02292   0.02404   3.78654
   Z39       -1.85503   0.00001   0.00000   0.00907   0.01096  -1.84408
   X40       -1.83139   0.00000   0.00000  -0.01942  -0.02042  -1.85181
   Y40        3.98813   0.00002   0.00000   0.02386   0.02526   4.01340
   Z40       -4.05441   0.00002   0.00000   0.01373   0.01550  -4.03891
   X41       -4.22913  -0.00004   0.00000  -0.02253  -0.02379  -4.25292
   Y41        5.08238   0.00002   0.00000   0.01677   0.01759   5.09997
   Z41       -4.00223   0.00002   0.00000   0.02328   0.02504  -3.97719
   X42       -5.18407  -0.00003   0.00000  -0.01855  -0.02031  -5.20438
   Y42        5.95681   0.00001   0.00000   0.00876   0.00870   5.96551
   Z42       -1.71224   0.00007   0.00000   0.02809   0.02998  -1.68226
   X43       -3.74134  -0.00003   0.00000  -0.01129  -0.01328  -3.75461
   Y43        5.73974   0.00002   0.00000   0.00863   0.00828   5.74802
   Z43        0.48375   0.00003   0.00000   0.02329   0.02530   0.50906
   X44        1.40773   0.00000   0.00000  -0.00992  -0.01092   1.39681
   Y44        2.79844  -0.00000   0.00000   0.02761   0.02916   2.82760
   Z44       -1.87827  -0.00002   0.00000   0.00140   0.00325  -1.87503
   X45       -1.05369  -0.00002   0.00000  -0.02246  -0.02306  -1.07676
   Y45        3.31416   0.00005   0.00000   0.03039   0.03249   3.34665
   Z45       -5.83468   0.00001   0.00000   0.00991   0.01159  -5.82309
   X46       -5.33232  -0.00004   0.00000  -0.02801  -0.02909  -5.36141
   Y46        5.26351   0.00003   0.00000   0.01759   0.01864   5.28215
   Z46       -5.72445   0.00004   0.00000   0.02688   0.02856  -5.69590
   X47       -7.04632  -0.00005   0.00000  -0.02100  -0.02298  -7.06929
   Y47        6.81796   0.00002   0.00000   0.00291   0.00239   6.82035
   Z47       -1.63134   0.00006   0.00000   0.03560   0.03749  -1.59386
   X48       -4.50254  -0.00004   0.00000  -0.00835  -0.01073  -4.51327
   Y48        6.44901   0.00000   0.00000   0.00239   0.00136   6.45037
   Z48        2.25769   0.00007   0.00000   0.02716   0.02928   2.28697
   X49        1.04904   0.00001   0.00000  -0.00322  -0.00488   1.04417
   Y49        2.39840   0.00017   0.00000   0.01618   0.01598   2.41438
   Z49        3.97158  -0.00007   0.00000   0.00992   0.01161   3.98319
   X50       -0.82530  -0.00001   0.00000   0.00443   0.00382  -0.82148
   Y50       -0.56374  -0.00005   0.00000  -0.00102  -0.00091  -0.56466
   Z50        1.35537   0.00009   0.00000   0.00186   0.00246   1.35782
   X51        3.24224  -0.00005   0.00000  -0.01600  -0.01718   3.22506
   Y51        1.05647  -0.00022   0.00000   0.00205   0.00270   1.05917
   Z51        2.78759  -0.00002   0.00000   0.00202   0.00360   2.79119
   X52        2.53949   0.00011   0.00000  -0.03219  -0.03285   2.50664
   Y52       -0.03821   0.00011   0.00000  -0.00117  -0.00009  -0.03830
   Z52        0.66704   0.00020   0.00000   0.00951   0.01069   0.67773
   X53        3.91523   0.00012   0.00000  -0.01328  -0.01431   3.90091
   Y53       -0.66195   0.00017   0.00000   0.00479   0.00505  -0.65690
   Z53        4.72545  -0.00012   0.00000   0.00321   0.00439   4.72984
   X54        2.60472  -0.00017   0.00000  -0.02092  -0.02164   2.58308
   Y54       -1.95428  -0.00011   0.00000   0.01172   0.01167  -1.94261
   Z54        4.69323   0.00005   0.00000   0.01634   0.01699   4.71022
   X55        5.50878  -0.00005   0.00000  -0.00649  -0.00809   5.50068
   Y55        2.91114  -0.00001   0.00000  -0.01124  -0.01002   2.90112
   Z55        2.67417   0.00006   0.00000  -0.01724  -0.01484   2.65933
   X56        5.36667   0.00000   0.00000   0.01404   0.01192   5.37859
   Y56        4.22216  -0.00012   0.00000  -0.00751  -0.00677   4.21539
   Z56        4.27611  -0.00015   0.00000  -0.01910  -0.01634   4.25977
   X57        7.19961  -0.00018   0.00000  -0.01248  -0.01386   7.18575
   Y57        1.76893   0.00008   0.00000  -0.02211  -0.02059   1.74835
   Z57        3.04459  -0.00004   0.00000  -0.02660  -0.02431   3.02029
   X58        0.19209  -0.00005   0.00000  -0.00026  -0.00231   0.18978
   Y58        4.67273   0.00003   0.00000   0.01647   0.01637   4.68909
   Z58        2.92378   0.00006   0.00000   0.00872   0.01095   2.93473
   X59       -1.03754   0.00001   0.00000   0.00686   0.00442  -1.03312
   Y59        5.50980   0.00003   0.00000   0.02244   0.02163   5.53143
   Z59        4.37028   0.00001   0.00000   0.01130   0.01361   4.38388
   X60        1.77217  -0.00002   0.00000   0.00277   0.00043   1.77259
   Y60        6.00289  -0.00005   0.00000   0.01124   0.01158   6.01446
   Z60        2.68292   0.00003   0.00000   0.00122   0.00403   2.68695
   X61       -3.12831  -0.00004   0.00000  -0.01000  -0.01136  -3.13967
   Y61       -0.46247  -0.00001   0.00000  -0.01261  -0.01466  -0.47713
   Z61        6.98636   0.00002   0.00000  -0.00443  -0.00411   6.98224
   X62       -1.47212   0.00001   0.00000  -0.01297  -0.01461  -1.48673
   Y62        0.76628   0.00003   0.00000  -0.00781  -0.00942   0.75686
   Z62        6.85413  -0.00001   0.00000   0.00061   0.00150   6.85563
   X63       -4.87795  -0.00005   0.00000  -0.01227  -0.01384  -4.89179
   Y63        0.59022  -0.00002   0.00000  -0.01700  -0.01937   0.57085
   Z63        6.69613  -0.00002   0.00000  -0.00716  -0.00676   6.68937
   X64       -3.18198  -0.00002   0.00000  -0.01128  -0.01262  -3.19460
   Y64       -1.50675  -0.00002   0.00000  -0.01479  -0.01735  -1.52410
   Z64        8.76370   0.00001   0.00000  -0.00571  -0.00570   8.75800
   X65        5.89988  -0.00007   0.00000  -0.01197  -0.01359   5.88628
   Y65        4.36929  -0.00010   0.00000  -0.01988  -0.01787   4.35143
   Z65        0.21719  -0.00023   0.00000  -0.02335  -0.02049   0.19670
   X66        6.08240  -0.00008   0.00000  -0.06005  -0.06115   6.02125
   Y66        3.02717   0.00023   0.00000  -0.02355  -0.02106   3.00611
   Z66       -1.35140   0.00023   0.00000  -0.02438  -0.02188  -1.37328
   X67        4.25015   0.00012   0.00000   0.00513   0.00328   4.25343
   Y67        5.53176  -0.00002   0.00000   0.01263   0.01439   5.54614
   Z67       -0.24306   0.00006   0.00000  -0.00091   0.00208  -0.24098
   X68        8.23807   0.00018   0.00000   0.02514   0.02312   8.26119
   Y68        6.05793   0.00000   0.00000  -0.06888  -0.06633   5.99161
   Z68        0.35026   0.00017   0.00000  -0.05893  -0.05529   0.29497
   X69        8.55158   0.00004   0.00000   0.01885   0.01682   8.56840
   Y69        7.08086  -0.00010   0.00000  -0.07357  -0.07045   7.01042
   Z69       -1.41954  -0.00008   0.00000  -0.06277  -0.05880  -1.47834
   X70        8.04577   0.00013   0.00000   0.07844   0.07589   8.12167
   Y70        7.45729  -0.00041   0.00000  -0.06766  -0.06558   7.39171
   Z70        1.86565  -0.00038   0.00000  -0.05505  -0.05103   1.81462
   X71        9.93595  -0.00016   0.00000   0.00752   0.00572   9.94167
   Y71        4.94161  -0.00007   0.00000  -0.10497  -0.10214   4.83948
   Z71        0.75512  -0.00019   0.00000  -0.08737  -0.08384   0.67127
   X72        9.13178   0.00001   0.00000   0.00387   0.00434   9.13612
   Y72       -4.27137   0.00005   0.00000   0.01897   0.02190  -4.24947
   Z72       -0.35062   0.00004   0.00000   0.02351   0.02434  -0.32628
   X73       10.24290  -0.00001   0.00000  -0.00067  -0.00045  10.24245
   Y73       -4.16386   0.00005   0.00000   0.02927   0.03197  -4.13189
   Z73        1.38370   0.00004   0.00000   0.02576   0.02677   1.41046
   X74       10.03246   0.00001   0.00000   0.00813   0.00909  10.04155
   Y74       -5.62713   0.00002   0.00000   0.01262   0.01612  -5.61101
   Z74       -1.63025   0.00006   0.00000   0.03330   0.03386  -1.59639
   X75        8.79877  -0.00002   0.00000   0.00574   0.00577   8.80455
   Y75       -1.70472  -0.00002   0.00000   0.01178   0.01501  -1.68971
   Z75       -1.64087   0.00002   0.00000   0.00867   0.01019  -1.63068
   X76        8.36440   0.00004   0.00000   0.00467   0.00418   8.36858
   Y76       -0.27970   0.00005   0.00000   0.02014   0.02286  -0.25684
   Z76       -0.21004  -0.00002   0.00000  -0.00001   0.00186  -0.20818
   X77       10.45206   0.00001   0.00000   0.00728   0.00731  10.45937
   Y77       -1.09292   0.00001   0.00000   0.00537   0.00929  -1.08363
   Z77       -2.71357   0.00001   0.00000   0.00737   0.00928  -2.70429
         Item               Value     Threshold  Converged?
 Maximum Force            0.000413     0.000450     YES
 RMS     Force            0.000071     0.000300     YES
 Maximum Displacement     0.102136     0.001800     NO 
 RMS     Displacement     0.019738     0.001200     NO 
 Predicted change in Energy=-1.319043D-04
 GradGradGradGradGradGradGradGradGradGradGradGradGradGradGradGradGradGrad

 Leave Link  103 at Thu Feb  7 14:25:00 2019, MaxMem=   104857600 cpu:              19.9 elap:               0.9
 (Enter /home/xinyan/g16/l9999.exe)
 1\1\GINC-TSE4\Force\RM062X\6-31G(d)\C27H41N3O5S1\STEVETSE\07-Feb-2019\
 0\\#p M062X/6-31G* em=gd3 force int=ultrafine\\Title\\0,1\C,-4.89941,0
 .24815,-0.42947\C,-5.08943,-1.02422,-1.2607\C,-3.75936,-1.48043,-1.873
 19\C,-2.76041,-1.71954,-0.74708\C,-2.52619,-0.42334,0.07084\C,-3.85208
 ,0.05558,0.67204\H,-3.88503,-2.39154,-2.46784\H,-5.48661,-1.8254,-0.62
 365\H,-5.8219,-0.85562,-2.0563\H,-4.5767,1.0627,-1.09111\H,-5.85294,0.
 55261,0.01414\H,-3.15144,-2.48931,-0.07476\H,-2.19263,0.34494,-0.6384\
 H,-4.2096,-0.6755,1.40488\H,-3.66782,1.00095,1.19351\H,-3.39807,-0.688
 34,-2.54293\N,-1.43582,-2.20316,-1.18954\C,-0.73262,-1.50021,-2.11736\
 C,-0.75598,-3.02069,-0.34177\C,0.62445,-1.55468,-2.19473\H,-1.31328,-0
 .86098,-2.77103\C,0.60113,-3.114,-0.34583\H,-1.35951,-3.54133,0.39391\
 C,1.36007,-2.27933,-1.20931\H,1.12917,-0.96714,-2.94964\H,1.07256,-3.7
 27,0.40909\N,2.68025,-2.18117,-1.10413\C,3.39003,-2.67143,0.08721\H,3.
 26762,-3.7529,0.19226\H,2.98114,-2.15062,0.96556\C,3.42239,-1.09263,-1
 .75568\H,3.68513,-1.37941,-2.78135\H,2.79523,-0.19712,-1.76313\N,-1.42
 101,-0.548,1.00843\S,-1.49632,-1.42769,2.37995\O,-2.70545,-2.25546,2.3
 2788\O,-0.21312,-2.10798,2.572\C,-0.70751,2.45805,0.24603\C,-0.21185,1
 .99103,-0.98164\C,-0.96913,2.11043,-2.1455\C,-2.23796,2.68948,-2.11789
 \C,-2.74329,3.15221,-0.90608\C,-1.97983,3.03734,0.25599\H,0.74494,1.48
 087,-0.99394\H,-0.55759,1.75378,-3.08758\H,-2.82174,2.78533,-3.02925\H
 ,-3.72875,3.60791,-0.86327\H,-2.38264,3.41267,1.19472\O,0.55513,1.2691
 8,2.10167\H,-0.43673,-0.29832,0.71723\C,1.71572,0.55906,1.47513\O,1.34
 384,-0.02022,0.35298\O,2.07185,-0.35029,2.5006\H,1.37836,-1.03416,2.48
 355\C,2.91512,1.54051,1.41511\H,2.83992,2.23427,2.26282\H,3.80987,0.93
 608,1.61113\C,0.10165,2.4727,1.5472\H,-0.54904,2.91566,2.31265\H,0.937
 79,3.17659,1.41974\C,-1.65543,-0.24473,3.69702\H,-0.77901,0.4055,3.627
 05\H,-2.5813,0.31233,3.54344\H,-1.68383,-0.79734,4.63755\C,3.12208,2.3
 1213,0.11493\H,3.21867,1.60191,-0.71513\H,2.24908,2.92728,-0.12862\C,4
 .3594,3.20572,0.18535\H,4.5253,3.74703,-0.75119\H,4.25764,3.94623,0.98
 726\H,5.25788,2.61499,0.39959\C,4.83233,-2.26031,-0.18554\H,5.42031,-2
 .20342,0.73222\H,5.30895,-2.97775,-0.86269\C,4.65611,-0.9021,-0.86831\
 H,4.42625,-0.14801,-0.11115\H,5.53099,-0.57835,-1.43596\\Version=ES64L
 -G16RevA.03\State=1-A\HF=-1991.3583266\RMSD=9.240e-09\RMSF=7.114e-05\D
 ipole=-0.9806278,-0.7010771,-2.5301638\Quadrupole=7.7616361,-5.1510159
 ,-2.6106202,-9.3333678,-3.9263702,7.2452442\PG=C01 [X(C27H41N3O5S1)]\\
 @


  DISAPPOINTMENT IS THE NURSE OF WISDOM.               
                              SIR BOYLE ROCHE                 
 Job cpu time:       0 days  1 hours 17 minutes 59.0 seconds.
 Elapsed time:       0 days  0 hours  3 minutes 16.1 seconds.
 File lengths (MBytes):  RWF=    216 Int=      0 D2E=      0 Chk=     25 Scr=      1
 Normal termination of Gaussian 16 at Thu Feb  7 14:25:00 2019.
