 Entering Gaussian System, Link 0=g16
 Input=C27N3H41SO5-309.gjf
 Output=C27N3H41SO5-309.log
 Initial command:
 /home/xinyan/g16/l1.exe "/local/home/tmp/Gau-25329.inp" -scrdir="/local/home/tmp/"
 Entering Link 1 = /home/xinyan/g16/l1.exe PID=     25330.
  
 Copyright (c) 1988,1990,1992,1993,1995,1998,2003,2009,2016,
            Gaussian, Inc.  All Rights Reserved.
  
 This is part of the Gaussian(R) 16 program.  It is based on
 the Gaussian(R) 09 system (copyright 2009, Gaussian, Inc.),
 the Gaussian(R) 03 system (copyright 2003, Gaussian, Inc.),
 the Gaussian(R) 98 system (copyright 1998, Gaussian, Inc.),
 the Gaussian(R) 94 system (copyright 1995, Gaussian, Inc.),
 the Gaussian 92(TM) system (copyright 1992, Gaussian, Inc.),
 the Gaussian 90(TM) system (copyright 1990, Gaussian, Inc.),
 the Gaussian 88(TM) system (copyright 1988, Gaussian, Inc.),
 the Gaussian 86(TM) system (copyright 1986, Carnegie Mellon
 University), and the Gaussian 82(TM) system (copyright 1983,
 Carnegie Mellon University). Gaussian is a federally registered
 trademark of Gaussian, Inc.
  
 This software contains proprietary and confidential information,
 including trade secrets, belonging to Gaussian, Inc.
  
 This software is provided under written license and may be
 used, copied, transmitted, or stored only in accord with that
 written license.
  
 The following legend is applicable only to US Government
 contracts under FAR:
  
                    RESTRICTED RIGHTS LEGEND
  
 Use, reproduction and disclosure by the US Government is
 subject to restrictions as set forth in subparagraphs (a)
 and (c) of the Commercial Computer Software - Restricted
 Rights clause in FAR 52.227-19.
  
 Gaussian, Inc.
 340 Quinnipiac St., Bldg. 40, Wallingford CT 06492
  
  
 ---------------------------------------------------------------
 Warning -- This program may not be used in any manner that
 competes with the business of Gaussian, Inc. or will provide
 assistance to any competitor of Gaussian, Inc.  The licensee
 of this program is prohibited from giving any competitor of
 Gaussian, Inc. access to this program.  By using this program,
 the user acknowledges that Gaussian, Inc. is engaged in the
 business of creating and licensing software in the field of
 computational chemistry and represents and warrants to the
 licensee that it is not a competitor of Gaussian, Inc. and that
 it will not use this program in any manner prohibited above.
 ---------------------------------------------------------------
  

 Cite this work as:
 Gaussian 16, Revision A.03,
 M. J. Frisch, G. W. Trucks, H. B. Schlegel, G. E. Scuseria, 
 M. A. Robb, J. R. Cheeseman, G. Scalmani, V. Barone, 
 G. A. Petersson, H. Nakatsuji, X. Li, M. Caricato, A. V. Marenich, 
 J. Bloino, B. G. Janesko, R. Gomperts, B. Mennucci, H. P. Hratchian, 
 J. V. Ortiz, A. F. Izmaylov, J. L. Sonnenberg, D. Williams-Young, 
 F. Ding, F. Lipparini, F. Egidi, J. Goings, B. Peng, A. Petrone, 
 T. Henderson, D. Ranasinghe, V. G. Zakrzewski, J. Gao, N. Rega, 
 G. Zheng, W. Liang, M. Hada, M. Ehara, K. Toyota, R. Fukuda, 
 J. Hasegawa, M. Ishida, T. Nakajima, Y. Honda, O. Kitao, H. Nakai, 
 T. Vreven, K. Throssell, J. A. Montgomery, Jr., J. E. Peralta, 
 F. Ogliaro, M. J. Bearpark, J. J. Heyd, E. N. Brothers, K. N. Kudin, 
 V. N. Staroverov, T. A. Keith, R. Kobayashi, J. Normand, 
 K. Raghavachari, A. P. Rendell, J. C. Burant, S. S. Iyengar, 
 J. Tomasi, M. Cossi, J. M. Millam, M. Klene, C. Adamo, R. Cammi, 
 J. W. Ochterski, R. L. Martin, K. Morokuma, O. Farkas, 
 J. B. Foresman, and D. J. Fox, Gaussian, Inc., Wallingford CT, 2016.
 
 ******************************************
 Gaussian 16:  ES64L-G16RevA.03 25-Dec-2016
                 8-Feb-2019 
 ******************************************
 %nproc=24
 Will use up to   24 processors via shared memory.
 ------------------------------------------
 #p M062X/6-31G* em=gd3 force int=ultrafine
 ------------------------------------------
 1/10=7,30=1,38=1/1,3;
 2/12=2,17=6,18=5,40=1/2;
 3/5=1,6=6,7=1,11=2,25=1,30=1,71=1,74=-55,75=-5,124=31/1,2,3;
 4//1;
 5/5=2,38=5/2;
 6/7=2,8=2,9=2,10=2,28=1/1;
 7/29=1/1,2,3,16;
 1/10=7,30=1/3;
 99//99;
 Leave Link    1 at Fri Feb  8 01:39:20 2019, MaxMem=           0 cpu:               1.7 elap:               0.1
 (Enter /home/xinyan/g16/l101.exe)
 -----
 Title
 -----
 Symbolic Z-matrix:
 Charge =  0 Multiplicity = 1
 C                    -4.94268   0.25274  -0.23262 
 C                    -5.08126  -1.00023  -1.10275 
 C                    -3.72973  -1.39474  -1.71021 
 C                    -2.73513  -1.63159  -0.5786 
 C                    -2.53451  -0.34448   0.26977 
 C                    -3.89091   0.06356   0.86456 
 H                    -3.8213   -2.29106  -2.33432 
 H                    -5.45859  -1.83198  -0.49338 
 H                    -5.8094   -0.83416  -1.90344 
 H                    -4.64215   1.09679  -0.86924 
 H                    -5.91131   0.51191   0.20809 
 H                    -3.10801  -2.42645   0.07257 
 H                    -2.26211   0.43715  -0.45458 
 H                    -4.21634  -0.70295   1.57935 
 H                    -3.7453    0.9992    1.41838 
 H                    -3.38983  -0.56968  -2.35151 
 N                    -1.40282  -2.08707  -1.03842 
 C                    -0.74189  -1.41916  -2.01141 
 C                    -0.70873  -2.92825  -0.23615 
 C                     0.60351  -1.55322  -2.20116 
 H                    -1.33658  -0.74824  -2.61791 
 C                     0.63862  -3.11151  -0.36241 
 H                    -1.27928  -3.40749   0.55213 
 C                     1.36868  -2.35098  -1.30656 
 H                     1.07612  -0.99731  -3.00017 
 H                     1.13034  -3.75689   0.35192 
 N                     2.70796  -2.37016  -1.3386 
 C                     3.47334  -2.98563  -0.24796 
 H                     3.32055  -4.06887  -0.23042 
 H                     3.13759  -2.56097   0.70856 
 C                     3.48605  -1.32816  -2.02521 
 H                     3.70296  -1.6353   -3.05579 
 H                     2.92326  -0.39108  -2.03022 
 N                    -1.40961  -0.41721   1.18062 
 S                    -1.45121  -1.39951   2.41616 
 O                    -2.52745  -2.41327   2.35031 
 O                    -0.09397  -1.96817   2.64184 
 C                    -1.06237   2.71448   0.02219 
 C                    -0.34397   2.03254  -0.96456 
 C                    -0.83242   1.97924  -2.26876 
 C                    -2.05146   2.5715   -2.59709 
 C                    -2.77813   3.23578  -1.61037 
 C                    -2.28046   3.30789  -0.31172 
 H                     0.56886   1.50634  -0.69147 
 H                    -0.25844   1.46416  -3.03585 
 H                    -2.43278   2.51955  -3.61267 
 H                    -3.73315   3.69449  -1.84984 
 H                    -2.85169   3.81964   0.46015 
 O                     0.26044   1.6906    1.7846 
 H                    -0.26319   0.87651   1.53032 
 C                     2.38751   0.2037    1.41792 
 O                     2.06708  -0.20083   0.31278 
 O                     2.06023  -0.40064   2.5466 
 H                     1.32728  -1.06238   2.40361 
 C                     3.25507   1.41981   1.64283 
 H                     2.84825   1.95155   2.5074 
 H                     4.25898   1.07093   1.9257 
 C                    -0.5398    2.78532   1.44341 
 H                    -1.39662   2.89697   2.12951 
 H                     0.07951   3.68466   1.56096 
 C                    -1.7536   -0.39732   3.86882 
 H                    -0.99062   0.38485   3.8841 
 H                    -2.75079   0.03842   3.78063 
 H                    -1.68372  -1.02897   4.75546 
 C                     3.31761   2.32482   0.41969 
 H                     3.67729   1.75093  -0.44306 
 H                     2.29718   2.63992   0.17525 
 C                     4.20339   3.54551   0.64894 
 H                     4.23779   4.1848   -0.23789 
 H                     3.82784   4.14843   1.48231 
 H                     5.23032   3.25026   0.89063 
 C                     4.91506  -2.59357  -0.55946 
 H                     5.54043  -2.59565   0.33548 
 H                     5.34742  -3.29163  -1.28387 
 C                     4.75687  -1.20358  -1.18056 
 H                     4.57931  -0.46501  -0.3931 
 H                     5.6206   -0.88961  -1.77018 
 
 ITRead=  0  0  0  0  0  0  0  0  0  0  0  0  0  0  0  0  0  0  0  0
 ITRead=  0  0  0  0  0  0  0  0  0  0  0  0  0  0  0  0  0  0  0  0
 ITRead=  0  0  0  0  0  0  0  0  0  0  0  0  0  0  0  0  0  0  0  0
 ITRead=  0  0  0  0  0  0  0  0  0  0  0  0  0  0  0  0  0
 MicOpt= -1 -1 -1 -1 -1 -1 -1 -1 -1 -1 -1 -1 -1 -1 -1 -1 -1 -1 -1 -1
 MicOpt= -1 -1 -1 -1 -1 -1 -1 -1 -1 -1 -1 -1 -1 -1 -1 -1 -1 -1 -1 -1
 MicOpt= -1 -1 -1 -1 -1 -1 -1 -1 -1 -1 -1 -1 -1 -1 -1 -1 -1 -1 -1 -1
 MicOpt= -1 -1 -1 -1 -1 -1 -1 -1 -1 -1 -1 -1 -1 -1 -1 -1 -1
 NAtoms=     77 NQM=       77 NQMF=       0 NMMI=      0 NMMIF=      0
                NMic=       0 NMicF=      0.
                    Isotopes and Nuclear Properties:
 (Nuclear quadrupole moments (NQMom) in fm**2, nuclear magnetic moments (NMagM)
  in nuclear magnetons)

  Atom         1           2           3           4           5           6           7           8           9          10
 IAtWgt=          12          12          12          12          12          12           1           1           1           1
 AtmWgt=  12.0000000  12.0000000  12.0000000  12.0000000  12.0000000  12.0000000   1.0078250   1.0078250   1.0078250   1.0078250
 NucSpn=           0           0           0           0           0           0           1           1           1           1
 AtZEff=  -0.0000000  -0.0000000  -0.0000000  -0.0000000  -0.0000000  -0.0000000  -0.0000000  -0.0000000  -0.0000000  -0.0000000
 NQMom=    0.0000000   0.0000000   0.0000000   0.0000000   0.0000000   0.0000000   0.0000000   0.0000000   0.0000000   0.0000000
 NMagM=    0.0000000   0.0000000   0.0000000   0.0000000   0.0000000   0.0000000   2.7928460   2.7928460   2.7928460   2.7928460
 AtZNuc=   6.0000000   6.0000000   6.0000000   6.0000000   6.0000000   6.0000000   1.0000000   1.0000000   1.0000000   1.0000000

  Atom        11          12          13          14          15          16          17          18          19          20
 IAtWgt=           1           1           1           1           1           1          14          12          12          12
 AtmWgt=   1.0078250   1.0078250   1.0078250   1.0078250   1.0078250   1.0078250  14.0030740  12.0000000  12.0000000  12.0000000
 NucSpn=           1           1           1           1           1           1           2           0           0           0
 AtZEff=  -0.0000000  -0.0000000  -0.0000000  -0.0000000  -0.0000000  -0.0000000  -0.0000000  -0.0000000  -0.0000000  -0.0000000
 NQMom=    0.0000000   0.0000000   0.0000000   0.0000000   0.0000000   0.0000000   2.0440000   0.0000000   0.0000000   0.0000000
 NMagM=    2.7928460   2.7928460   2.7928460   2.7928460   2.7928460   2.7928460   0.4037610   0.0000000   0.0000000   0.0000000
 AtZNuc=   1.0000000   1.0000000   1.0000000   1.0000000   1.0000000   1.0000000   7.0000000   6.0000000   6.0000000   6.0000000

  Atom        21          22          23          24          25          26          27          28          29          30
 IAtWgt=           1          12           1          12           1           1          14          12           1           1
 AtmWgt=   1.0078250  12.0000000   1.0078250  12.0000000   1.0078250   1.0078250  14.0030740  12.0000000   1.0078250   1.0078250
 NucSpn=           1           0           1           0           1           1           2           0           1           1
 AtZEff=  -0.0000000  -0.0000000  -0.0000000  -0.0000000  -0.0000000  -0.0000000  -0.0000000  -0.0000000  -0.0000000  -0.0000000
 NQMom=    0.0000000   0.0000000   0.0000000   0.0000000   0.0000000   0.0000000   2.0440000   0.0000000   0.0000000   0.0000000
 NMagM=    2.7928460   0.0000000   2.7928460   0.0000000   2.7928460   2.7928460   0.4037610   0.0000000   2.7928460   2.7928460
 AtZNuc=   1.0000000   6.0000000   1.0000000   6.0000000   1.0000000   1.0000000   7.0000000   6.0000000   1.0000000   1.0000000

  Atom        31          32          33          34          35          36          37          38          39          40
 IAtWgt=          12           1           1          14          32          16          16          12          12          12
 AtmWgt=  12.0000000   1.0078250   1.0078250  14.0030740  31.9720718  15.9949146  15.9949146  12.0000000  12.0000000  12.0000000
 NucSpn=           0           1           1           2           0           0           0           0           0           0
 AtZEff=  -0.0000000  -0.0000000  -0.0000000  -0.0000000  -0.0000000  -0.0000000  -0.0000000  -0.0000000  -0.0000000  -0.0000000
 NQMom=    0.0000000   0.0000000   0.0000000   2.0440000   0.0000000   0.0000000   0.0000000   0.0000000   0.0000000   0.0000000
 NMagM=    0.0000000   2.7928460   2.7928460   0.4037610   0.0000000   0.0000000   0.0000000   0.0000000   0.0000000   0.0000000
 AtZNuc=   6.0000000   1.0000000   1.0000000   7.0000000  16.0000000   8.0000000   8.0000000   6.0000000   6.0000000   6.0000000

  Atom        41          42          43          44          45          46          47          48          49          50
 IAtWgt=          12          12          12           1           1           1           1           1          16           1
 AtmWgt=  12.0000000  12.0000000  12.0000000   1.0078250   1.0078250   1.0078250   1.0078250   1.0078250  15.9949146   1.0078250
 NucSpn=           0           0           0           1           1           1           1           1           0           1
 AtZEff=  -0.0000000  -0.0000000  -0.0000000  -0.0000000  -0.0000000  -0.0000000  -0.0000000  -0.0000000  -0.0000000  -0.0000000
 NQMom=    0.0000000   0.0000000   0.0000000   0.0000000   0.0000000   0.0000000   0.0000000   0.0000000   0.0000000   0.0000000
 NMagM=    0.0000000   0.0000000   0.0000000   2.7928460   2.7928460   2.7928460   2.7928460   2.7928460   0.0000000   2.7928460
 AtZNuc=   6.0000000   6.0000000   6.0000000   1.0000000   1.0000000   1.0000000   1.0000000   1.0000000   8.0000000   1.0000000

  Atom        51          52          53          54          55          56          57          58          59          60
 IAtWgt=          12          16          16           1          12           1           1          12           1           1
 AtmWgt=  12.0000000  15.9949146  15.9949146   1.0078250  12.0000000   1.0078250   1.0078250  12.0000000   1.0078250   1.0078250
 NucSpn=           0           0           0           1           0           1           1           0           1           1
 AtZEff=  -0.0000000  -0.0000000  -0.0000000  -0.0000000  -0.0000000  -0.0000000  -0.0000000  -0.0000000  -0.0000000  -0.0000000
 NQMom=    0.0000000   0.0000000   0.0000000   0.0000000   0.0000000   0.0000000   0.0000000   0.0000000   0.0000000   0.0000000
 NMagM=    0.0000000   0.0000000   0.0000000   2.7928460   0.0000000   2.7928460   2.7928460   0.0000000   2.7928460   2.7928460
 AtZNuc=   6.0000000   8.0000000   8.0000000   1.0000000   6.0000000   1.0000000   1.0000000   6.0000000   1.0000000   1.0000000

  Atom        61          62          63          64          65          66          67          68          69          70
 IAtWgt=          12           1           1           1          12           1           1          12           1           1
 AtmWgt=  12.0000000   1.0078250   1.0078250   1.0078250  12.0000000   1.0078250   1.0078250  12.0000000   1.0078250   1.0078250
 NucSpn=           0           1           1           1           0           1           1           0           1           1
 AtZEff=  -0.0000000  -0.0000000  -0.0000000  -0.0000000  -0.0000000  -0.0000000  -0.0000000  -0.0000000  -0.0000000  -0.0000000
 NQMom=    0.0000000   0.0000000   0.0000000   0.0000000   0.0000000   0.0000000   0.0000000   0.0000000   0.0000000   0.0000000
 NMagM=    0.0000000   2.7928460   2.7928460   2.7928460   0.0000000   2.7928460   2.7928460   0.0000000   2.7928460   2.7928460
 AtZNuc=   6.0000000   1.0000000   1.0000000   1.0000000   6.0000000   1.0000000   1.0000000   6.0000000   1.0000000   1.0000000

  Atom        71          72          73          74          75          76          77
 IAtWgt=           1          12           1           1          12           1           1
 AtmWgt=   1.0078250  12.0000000   1.0078250   1.0078250  12.0000000   1.0078250   1.0078250
 NucSpn=           1           0           1           1           0           1           1
 AtZEff=  -0.0000000  -0.0000000  -0.0000000  -0.0000000  -0.0000000  -0.0000000  -0.0000000
 NQMom=    0.0000000   0.0000000   0.0000000   0.0000000   0.0000000   0.0000000   0.0000000
 NMagM=    2.7928460   0.0000000   2.7928460   2.7928460   0.0000000   2.7928460   2.7928460
 AtZNuc=   1.0000000   6.0000000   1.0000000   1.0000000   6.0000000   1.0000000   1.0000000
 Leave Link  101 at Fri Feb  8 01:39:20 2019, MaxMem=   104857600 cpu:               5.8 elap:               0.3
 (Enter /home/xinyan/g16/l103.exe)

 GradGradGradGradGradGradGradGradGradGradGradGradGradGradGradGradGradGrad
 Berny optimization.
 Initialization pass.
 Trust Radius=3.00D-01 FncErr=1.00D-07 GrdErr=1.00D-07 EigMax=2.50D+02 EigMin=1.00D-04
 Number of steps in this run=      2 maximum allowed number of steps=      2.
 GradGradGradGradGradGradGradGradGradGradGradGradGradGradGradGradGradGrad

 Leave Link  103 at Fri Feb  8 01:39:20 2019, MaxMem=   104857600 cpu:               1.6 elap:               0.1
 (Enter /home/xinyan/g16/l202.exe)
 Stoichiometry    C27H41N3O5S
 Framework group  C1[X(C27H41N3O5S)]
 Deg. of freedom   225
 Full point group                 C1      NOp   1
 Largest Abelian subgroup         C1      NOp   1
 Largest concise Abelian subgroup C1      NOp   1
                         Standard orientation:                         
 ---------------------------------------------------------------------
 Center     Atomic      Atomic             Coordinates (Angstroms)
 Number     Number       Type             X           Y           Z
 ---------------------------------------------------------------------
      1          6           0       -4.863279    0.029008   -0.412484
      2          6           0       -4.882585   -1.243796   -1.264459
      3          6           0       -3.497232   -1.522959   -1.859558
      4          6           0       -2.492158   -1.652358   -0.719843
      5          6           0       -2.414026   -0.340251    0.110159
      6          6           0       -3.805378   -0.048239    0.692364
      7          1           0       -3.503499   -2.432806   -2.470645
      8          1           0       -5.186762   -2.097427   -0.644534
      9          1           0       -5.617898   -1.155958   -2.070977
     10          1           0       -4.636534    0.887536   -1.060203
     11          1           0       -5.854049    0.205686    0.019718
     12          1           0       -2.795496   -2.468248   -0.058652
     13          1           0       -2.209112    0.452305   -0.624480
     14          1           0       -4.064414   -0.830682    1.416968
     15          1           0       -3.748426    0.904643    1.232839
     16          1           0       -3.229531   -0.679841   -2.511486
     17          7           0       -1.121321   -1.991844   -1.166500
     18          6           0       -0.517676   -1.280916   -2.146213
     19          6           0       -0.358813   -2.755006   -0.348486
     20          6           0        0.835462   -1.295252   -2.327569
     21          1           0       -1.166969   -0.675463   -2.765469
     22          6           0        1.000335   -2.817241   -0.465617
     23          1           0       -0.888410   -3.272538    0.444150
     24          6           0        1.664265   -2.007404   -1.417548
     25          1           0        1.260646   -0.710402   -3.132542
     26          1           0        1.544116   -3.405035    0.260587
     27          7           0        2.999953   -1.905622   -1.442958
     28          6           0        3.811275   -2.433404   -0.339641
     29          1           0        3.757068   -3.525666   -0.306656
     30          1           0        3.432665   -2.027146    0.608833
     31          6           0        3.684673   -0.807432   -2.141355
     32          1           0        3.934744   -1.108503   -3.166197
     33          1           0        3.039406    0.074632   -2.163017
     34          7           0       -1.292707   -0.297604    1.027308
     35         16           0       -1.252709   -1.261692    2.277163
     36          8           0       -2.232341   -2.369638    2.221360
     37          8           0        0.149042   -1.701725    2.517729
     38          6           0       -1.223365    2.835614   -0.176084
     39          6           0       -0.440210    2.207393   -1.149133
     40          6           0       -0.913909    2.091233   -2.454690
     41          6           0       -2.179543    2.565806   -2.797591
     42          6           0       -2.969335    3.175691   -1.824348
     43          6           0       -2.488124    3.311337   -0.524578
     44          1           0        0.514833    1.770061   -0.863900
     45          1           0       -0.291015    1.619256   -3.211280
     46          1           0       -2.548427    2.464864   -3.814076
     47          1           0       -3.960488    3.542481   -2.075157
     48          1           0       -3.108006    3.780317    0.236854
     49          8           0        0.175984    1.961348    1.607655
     50          1           0       -0.270249    1.099578    1.363080
     51          6           0        2.431106    0.668146    1.273285
     52          8           0        2.155321    0.220334    0.172803
     53          8           0        2.153036    0.052997    2.409299
     54          1           0        1.483880   -0.674424    2.272735
     55          6           0        3.183636    1.960978    1.484121
     56          1           0        2.725114    2.466098    2.338722
     57          1           0        4.213272    1.708611    1.776917
     58          6           0       -0.717984    2.974021    1.246377
     59          1           0       -1.585540    3.017475    1.926671
     60          1           0       -0.183354    3.927376    1.353420
     61          6           0       -1.653386   -0.270154    3.713253
     62          1           0       -0.964451    0.578067    3.720467
     63          1           0       -2.685374    0.072126    3.613849
     64          1           0       -1.531994   -0.880007    4.609545
     65          6           0        3.171413    2.850178    0.247917
     66          1           0        3.586795    2.298841   -0.604457
     67          1           0        2.128151    3.067965   -0.006027
     68          6           0        3.941648    4.149284    0.463110
     69          1           0        3.923415    4.776191   -0.432991
     70          1           0        3.508012    4.727667    1.285600
     71          1           0        4.989603    3.951812    0.714039
     72          6           0        5.213448   -1.916870   -0.650130
     73          1           0        5.830998   -1.849360    0.247691
     74          1           0        5.711610   -2.583272   -1.361985
     75          6           0        4.933850   -0.556042   -1.292652
     76          1           0        4.685387    0.174694   -0.517155
     77          1           0        5.769173   -0.173652   -1.882798
 ---------------------------------------------------------------------
 Rotational constants (GHZ):           0.1429513           0.0957585           0.0860797
 Leave Link  202 at Fri Feb  8 01:39:21 2019, MaxMem=   104857600 cpu:               2.4 elap:               0.1
 (Enter /home/xinyan/g16/l301.exe)
 Standard basis: 6-31G(d) (6D, 7F)
 Ernie: Thresh=  0.10000D-02 Tol=  0.10000D-05 Strict=F.
 There are   626 symmetry adapted cartesian basis functions of A   symmetry.
 There are   626 symmetry adapted basis functions of A   symmetry.
   626 basis functions,  1196 primitive gaussians,   626 cartesian basis functions
   140 alpha electrons      140 beta electrons
       nuclear repulsion energy      4878.4649434579 Hartrees.
 IExCor= 4336 DFT=T Ex+Corr=M062X ExCW=0 ScaHFX=  0.540000
 ScaDFX=  1.000000  1.000000  1.000000  1.000000 ScalE2=  1.000000  1.000000
 IRadAn=      5 IRanWt=     -1 IRanGd=            0 ICorTp=0 IEmpDi=131
 NAtoms=   77 NActive=   77 NUniq=   77 SFac= 1.00D+00 NAtFMM=   60 NAOKFM=T Big=T
 Integral buffers will be    131072 words long.
 Raffenetti 2 integral format.
 Two-electron integral symmetry is turned on.
 R6Disp:  Grimme-D3 Dispersion energy=       -0.0105746783 Hartrees.
 Nuclear repulsion after empirical dispersion term =     4878.4543687796 Hartrees.
 Leave Link  301 at Fri Feb  8 01:39:21 2019, MaxMem=   104857600 cpu:               3.0 elap:               0.2
 (Enter /home/xinyan/g16/l302.exe)
 NPDir=0 NMtPBC=     1 NCelOv=     1 NCel=       1 NClECP=     1 NCelD=      1
         NCelK=      1 NCelE2=     1 NClLst=     1 CellRange=     0.0.
 One-electron integrals computed using PRISM.
 One-electron integral symmetry used in STVInt
 PrsmSu:  requested number of processors reduced to:  23 ShMem   1 Linda.
 NBasis=   626 RedAO= T EigKep=  4.36D-04  NBF=   626
 NBsUse=   626 1.00D-06 EigRej= -1.00D+00 NBFU=   626
 Precomputing XC quadrature grid using
 IXCGrd= 4 IRadAn=           5 IRanWt=          -1 IRanGd=           0 AccXCQ= 0.00D+00.
 Generated NRdTot=       0 NPtTot=           0 NUsed=           0 NTot=          32
 NSgBfM=   615   613   614   615   615 MxSgAt=    77 MxSgA2=    77.
 Leave Link  302 at Fri Feb  8 01:39:25 2019, MaxMem=   104857600 cpu:              92.7 elap:               4.1
 (Enter /home/xinyan/g16/l303.exe)
 DipDrv:  MaxL=1.
 Leave Link  303 at Fri Feb  8 01:39:25 2019, MaxMem=   104857600 cpu:               6.2 elap:               0.3
 (Enter /home/xinyan/g16/l401.exe)
 ExpMin= 1.17D-01 ExpMax= 2.19D+04 ExpMxC= 3.30D+03 IAcc=3 IRadAn=         5 AccDes= 0.00D+00
 Harris functional with IExCor= 1009 and IRadAn=       5 diagonalized for initial guess.
 HarFok:  IExCor= 1009 AccDes= 0.00D+00 IRadAn=         5 IDoV= 1 UseB2=F ITyADJ=14
 ICtDFT=  3500011 ScaDFX=  1.000000  1.000000  1.000000  1.000000
 FoFCou: FMM=F IPFlag=           0 FMFlag=      100000 FMFlg1=        2001
         NFxFlg=           0 DoJE=T BraDBF=F KetDBF=T FulRan=T
         wScrn=  0.000000 ICntrl=       500 IOpCl=  0 I1Cent=   200000004 NGrid=           0
         NMat0=    1 NMatS0=      1 NMatT0=    0 NMatD0=    1 NMtDS0=    0 NMtDT0=    0
 Petite list used in FoFCou.
 Harris En= -1990.55437397878    
 JPrj=0 DoOrth=F DoCkMO=F.
 Leave Link  401 at Fri Feb  8 01:39:29 2019, MaxMem=   104857600 cpu:              96.2 elap:               4.1
 (Enter /home/xinyan/g16/l502.exe)
 Integral symmetry usage will be decided dynamically.
 Closed shell SCF:
 Using DIIS extrapolation, IDIIS=  1040.
 NGot=   104857600 LenX=   104051656 LenY=   103659154
 Requested convergence on RMS density matrix=1.00D-08 within 128 cycles.
 Requested convergence on MAX density matrix=1.00D-06.
 Requested convergence on             energy=1.00D-06.
 No special actions if energy rises.
 Fock matrices will be formed incrementally for  20 cycles.
 Integral accuracy reduced to 1.0D-05 until final iterations.

 Cycle   1  Pass 0  IDiag  1:
 FoFJK:  IHMeth= 1 ICntrl=       0 DoSepK=F KAlg= 0 I1Cent=           0 FoldK=F
 IRaf= 990000000 NMat=       1 IRICut=       1 DoRegI=T DoRafI=F ISym2E= 0 IDoP0=0 IntGTp=1.
 FoFCou: FMM=T IPFlag=           0 FMFlag=      100000 FMFlg1=        2001
         NFxFlg=           0 DoJE=F BraDBF=F KetDBF=F FulRan=T
         wScrn=  0.000000 ICntrl=         0 IOpCl=  0 I1Cent=           0 NGrid=           0
         NMat0=    1 NMatS0=      1 NMatT0=    0 NMatD0=    1 NMtDS0=    0 NMtDT0=    0
 Symmetry not used in FoFCou.
 FMM levels:  10  Number of levels for PrismC:   9
 E= -1990.35032303824    
 DIIS: error= 2.58D-02 at cycle   1 NSaved=   1.
 NSaved= 1 IEnMin= 1 EnMin= -1990.35032303824     IErMin= 1 ErrMin= 2.58D-02
 ErrMax= 2.58D-02  0.00D+00 EMaxC= 1.00D-01 BMatC= 1.22D+00 BMatP= 1.22D+00
 IDIUse=3 WtCom= 7.42D-01 WtEn= 2.58D-01
 Coeff-Com:  0.100D+01
 Coeff-En:   0.100D+01
 Coeff:      0.100D+01
 Gap=     0.377 Goal=   None    Shift=    0.000
 GapD=    0.377 DampG=1.000 DampE=0.500 DampFc=0.5000 IDamp=-1.
 Damping current iteration by 5.00D-01
 RMSDP=3.20D-03 MaxDP=3.20D-01              OVMax= 1.42D-01

 Cycle   2  Pass 0  IDiag  1:
 RMSU=  1.59D-03    CP:  9.87D-01
 E= -1990.86401438164     Delta-E=       -0.513691343402 Rises=F Damp=T
 DIIS: error= 1.02D-02 at cycle   2 NSaved=   2.
 NSaved= 2 IEnMin= 2 EnMin= -1990.86401438164     IErMin= 2 ErrMin= 1.02D-02
 ErrMax= 1.02D-02  0.00D+00 EMaxC= 1.00D-01 BMatC= 8.80D-02 BMatP= 1.22D+00
 IDIUse=3 WtCom= 8.98D-01 WtEn= 1.02D-01
 Coeff-Com: -0.439D-01 0.104D+01
 Coeff-En:   0.000D+00 0.100D+01
 Coeff:     -0.394D-01 0.104D+01
 Gap=     0.253 Goal=   None    Shift=    0.000
 RMSDP=7.74D-04 MaxDP=7.51D-02 DE=-5.14D-01 OVMax= 9.35D-02

 Cycle   3  Pass 0  IDiag  1:
 RMSU=  7.69D-04    CP:  9.81D-01  1.01D+00
 E= -1991.35997676620     Delta-E=       -0.495962384553 Rises=F Damp=F
 DIIS: error= 6.34D-03 at cycle   3 NSaved=   3.
 NSaved= 3 IEnMin= 3 EnMin= -1991.35997676620     IErMin= 3 ErrMin= 6.34D-03
 ErrMax= 6.34D-03  0.00D+00 EMaxC= 1.00D-01 BMatC= 3.69D-02 BMatP= 8.80D-02
 IDIUse=3 WtCom= 9.37D-01 WtEn= 6.34D-02
 Coeff-Com: -0.708D-01 0.406D+00 0.664D+00
 Coeff-En:   0.000D+00 0.000D+00 0.100D+01
 Coeff:     -0.663D-01 0.381D+00 0.686D+00
 Gap=     0.253 Goal=   None    Shift=    0.000
 RMSDP=4.20D-04 MaxDP=4.01D-02 DE=-4.96D-01 OVMax= 4.31D-02

 Cycle   4  Pass 0  IDiag  1:
 RMSU=  2.87D-04    CP:  9.83D-01  1.09D+00  6.36D-01
 E= -1991.38135059734     Delta-E=       -0.021373831144 Rises=F Damp=F
 DIIS: error= 4.19D-03 at cycle   4 NSaved=   4.
 NSaved= 4 IEnMin= 4 EnMin= -1991.38135059734     IErMin= 4 ErrMin= 4.19D-03
 ErrMax= 4.19D-03  0.00D+00 EMaxC= 1.00D-01 BMatC= 1.05D-02 BMatP= 3.69D-02
 IDIUse=3 WtCom= 9.58D-01 WtEn= 4.19D-02
 Coeff-Com: -0.263D-01 0.866D-01 0.375D+00 0.564D+00
 Coeff-En:   0.000D+00 0.000D+00 0.227D+00 0.773D+00
 Coeff:     -0.252D-01 0.829D-01 0.369D+00 0.573D+00
 Gap=     0.242 Goal=   None    Shift=    0.000
 RMSDP=1.78D-04 MaxDP=1.24D-02 DE=-2.14D-02 OVMax= 1.88D-02

 Cycle   5  Pass 0  IDiag  1:
 RMSU=  8.31D-05    CP:  9.82D-01  1.08D+00  7.49D-01  5.45D-01
 E= -1991.38974337101     Delta-E=       -0.008392773671 Rises=F Damp=F
 DIIS: error= 9.23D-04 at cycle   5 NSaved=   5.
 NSaved= 5 IEnMin= 5 EnMin= -1991.38974337101     IErMin= 5 ErrMin= 9.23D-04
 ErrMax= 9.23D-04  0.00D+00 EMaxC= 1.00D-01 BMatC= 5.86D-04 BMatP= 1.05D-02
 IDIUse=3 WtCom= 9.91D-01 WtEn= 9.23D-03
 Coeff-Com: -0.819D-02 0.196D-01 0.145D+00 0.289D+00 0.555D+00
 Coeff-En:   0.000D+00 0.000D+00 0.000D+00 0.000D+00 0.100D+01
 Coeff:     -0.811D-02 0.194D-01 0.143D+00 0.286D+00 0.559D+00
 Gap=     0.245 Goal=   None    Shift=    0.000
 RMSDP=4.82D-05 MaxDP=3.76D-03 DE=-8.39D-03 OVMax= 5.50D-03

 Cycle   6  Pass 0  IDiag  1:
 RMSU=  2.40D-05    CP:  9.82D-01  1.08D+00  7.52D-01  6.18D-01  5.66D-01
 E= -1991.39024619555     Delta-E=       -0.000502824540 Rises=F Damp=F
 DIIS: error= 2.08D-04 at cycle   6 NSaved=   6.
 NSaved= 6 IEnMin= 6 EnMin= -1991.39024619555     IErMin= 6 ErrMin= 2.08D-04
 ErrMax= 2.08D-04  0.00D+00 EMaxC= 1.00D-01 BMatC= 3.81D-05 BMatP= 5.86D-04
 IDIUse=3 WtCom= 9.98D-01 WtEn= 2.08D-03
 Coeff-Com: -0.121D-02 0.110D-02 0.306D-01 0.773D-01 0.260D+00 0.632D+00
 Coeff-En:   0.000D+00 0.000D+00 0.000D+00 0.000D+00 0.000D+00 0.100D+01
 Coeff:     -0.120D-02 0.109D-02 0.305D-01 0.771D-01 0.260D+00 0.633D+00
 Gap=     0.244 Goal=   None    Shift=    0.000
 RMSDP=1.22D-05 MaxDP=6.53D-04 DE=-5.03D-04 OVMax= 1.79D-03

 Cycle   7  Pass 0  IDiag  1:
 RMSU=  7.86D-06    CP:  9.82D-01  1.08D+00  7.55D-01  6.18D-01  6.40D-01
                    CP:  7.17D-01
 E= -1991.39028336693     Delta-E=       -0.000037171378 Rises=F Damp=F
 DIIS: error= 3.89D-05 at cycle   7 NSaved=   7.
 NSaved= 7 IEnMin= 7 EnMin= -1991.39028336693     IErMin= 7 ErrMin= 3.89D-05
 ErrMax= 3.89D-05  0.00D+00 EMaxC= 1.00D-01 BMatC= 2.92D-06 BMatP= 3.81D-05
 IDIUse=1 WtCom= 1.00D+00 WtEn= 0.00D+00
 Coeff-Com:  0.294D-03-0.145D-02-0.786D-03 0.592D-02 0.623D-01 0.268D+00
 Coeff-Com:  0.665D+00
 Coeff:      0.294D-03-0.145D-02-0.786D-03 0.592D-02 0.623D-01 0.268D+00
 Coeff:      0.665D+00
 Gap=     0.244 Goal=   None    Shift=    0.000
 RMSDP=4.16D-06 MaxDP=2.36D-04 DE=-3.72D-05 OVMax= 3.28D-04

 Initial convergence to 1.0D-05 achieved.  Increase integral accuracy.
 Cycle   8  Pass 1  IDiag  1:
 E= -1991.39053233421     Delta-E=       -0.000248967278 Rises=F Damp=F
 DIIS: error= 1.53D-04 at cycle   1 NSaved=   1.
 NSaved= 1 IEnMin= 1 EnMin= -1991.39053233421     IErMin= 1 ErrMin= 1.53D-04
 ErrMax= 1.53D-04  0.00D+00 EMaxC= 1.00D-01 BMatC= 1.25D-05 BMatP= 1.25D-05
 IDIUse=3 WtCom= 9.98D-01 WtEn= 1.53D-03
 Coeff-Com:  0.100D+01
 Coeff-En:   0.100D+01
 Coeff:      0.100D+01
 Gap=     0.244 Goal=   None    Shift=    0.000
 RMSDP=4.16D-06 MaxDP=2.36D-04 DE=-2.49D-04 OVMax= 5.38D-04

 Cycle   9  Pass 1  IDiag  1:
 RMSU=  6.86D-05    CP:  1.00D+00
 E= -1991.39054379405     Delta-E=       -0.000011459842 Rises=F Damp=F
 DIIS: error= 3.09D-05 at cycle   2 NSaved=   2.
 NSaved= 2 IEnMin= 2 EnMin= -1991.39054379405     IErMin= 2 ErrMin= 3.09D-05
 ErrMax= 3.09D-05  0.00D+00 EMaxC= 1.00D-01 BMatC= 9.16D-07 BMatP= 1.25D-05
 IDIUse=1 WtCom= 1.00D+00 WtEn= 0.00D+00
 Coeff-Com:  0.818D-01 0.918D+00
 Coeff:      0.818D-01 0.918D+00
 Gap=     0.244 Goal=   None    Shift=    0.000
 RMSDP=4.12D-06 MaxDP=2.60D-04 DE=-1.15D-05 OVMax= 4.38D-04

 Cycle  10  Pass 1  IDiag  1:
 RMSU=  3.61D-06    CP:  1.00D+00  1.03D+00
 E= -1991.39054326367     Delta-E=        0.000000530378 Rises=F Damp=F
 DIIS: error= 4.61D-05 at cycle   3 NSaved=   3.
 NSaved= 3 IEnMin= 2 EnMin= -1991.39054379405     IErMin= 2 ErrMin= 3.09D-05
 ErrMax= 4.61D-05  0.00D+00 EMaxC= 1.00D-01 BMatC= 1.52D-06 BMatP= 9.16D-07
 IDIUse=1 WtCom= 1.00D+00 WtEn= 0.00D+00
 Coeff-Com: -0.159D-01 0.570D+00 0.446D+00
 Coeff:     -0.159D-01 0.570D+00 0.446D+00
 Gap=     0.244 Goal=   None    Shift=    0.000
 RMSDP=2.00D-06 MaxDP=1.59D-04 DE= 5.30D-07 OVMax= 3.07D-04

 Cycle  11  Pass 1  IDiag  1:
 RMSU=  6.18D-07    CP:  1.00D+00  1.03D+00  4.79D-01
 E= -1991.39054459407     Delta-E=       -0.000001330401 Rises=F Damp=F
 DIIS: error= 4.10D-06 at cycle   4 NSaved=   4.
 NSaved= 4 IEnMin= 4 EnMin= -1991.39054459407     IErMin= 4 ErrMin= 4.10D-06
 ErrMax= 4.10D-06  0.00D+00 EMaxC= 1.00D-01 BMatC= 1.00D-08 BMatP= 9.16D-07
 IDIUse=1 WtCom= 1.00D+00 WtEn= 0.00D+00
 Coeff-Com: -0.844D-02 0.250D+00 0.211D+00 0.548D+00
 Coeff:     -0.844D-02 0.250D+00 0.211D+00 0.548D+00
 Gap=     0.244 Goal=   None    Shift=    0.000
 RMSDP=2.05D-07 MaxDP=1.12D-05 DE=-1.33D-06 OVMax= 1.88D-05

 Cycle  12  Pass 1  IDiag  1:
 RMSU=  1.84D-07    CP:  1.00D+00  1.03D+00  4.95D-01  8.96D-01
 E= -1991.39054460306     Delta-E=       -0.000000008988 Rises=F Damp=F
 DIIS: error= 1.40D-06 at cycle   5 NSaved=   5.
 NSaved= 5 IEnMin= 5 EnMin= -1991.39054460306     IErMin= 5 ErrMin= 1.40D-06
 ErrMax= 1.40D-06  0.00D+00 EMaxC= 1.00D-01 BMatC= 8.83D-10 BMatP= 1.00D-08
 IDIUse=1 WtCom= 1.00D+00 WtEn= 0.00D+00
 Coeff-Com: -0.535D-03-0.617D-03 0.100D-01 0.200D+00 0.791D+00
 Coeff:     -0.535D-03-0.617D-03 0.100D-01 0.200D+00 0.791D+00
 Gap=     0.244 Goal=   None    Shift=    0.000
 RMSDP=8.81D-08 MaxDP=4.10D-06 DE=-8.99D-09 OVMax= 1.31D-05

 Cycle  13  Pass 1  IDiag  1:
 RMSU=  6.58D-08    CP:  1.00D+00  1.03D+00  4.99D-01  9.79D-01  8.93D-01
 E= -1991.39054460392     Delta-E=       -0.000000000864 Rises=F Damp=F
 DIIS: error= 7.65D-07 at cycle   6 NSaved=   6.
 NSaved= 6 IEnMin= 6 EnMin= -1991.39054460392     IErMin= 6 ErrMin= 7.65D-07
 ErrMax= 7.65D-07  0.00D+00 EMaxC= 1.00D-01 BMatC= 2.83D-10 BMatP= 8.83D-10
 IDIUse=1 WtCom= 1.00D+00 WtEn= 0.00D+00
 Coeff-Com:  0.975D-03-0.379D-01-0.246D-01 0.239D-01 0.440D+00 0.598D+00
 Coeff:      0.975D-03-0.379D-01-0.246D-01 0.239D-01 0.440D+00 0.598D+00
 Gap=     0.244 Goal=   None    Shift=    0.000
 RMSDP=3.41D-08 MaxDP=2.86D-06 DE=-8.64D-10 OVMax= 5.16D-06

 Cycle  14  Pass 1  IDiag  1:
 RMSU=  2.46D-08    CP:  1.00D+00  1.03D+00  5.02D-01  9.92D-01  9.76D-01
                    CP:  8.10D-01
 E= -1991.39054460417     Delta-E=       -0.000000000249 Rises=F Damp=F
 DIIS: error= 2.27D-07 at cycle   7 NSaved=   7.
 NSaved= 7 IEnMin= 7 EnMin= -1991.39054460417     IErMin= 7 ErrMin= 2.27D-07
 ErrMax= 2.27D-07  0.00D+00 EMaxC= 1.00D-01 BMatC= 1.72D-11 BMatP= 2.83D-10
 IDIUse=1 WtCom= 1.00D+00 WtEn= 0.00D+00
 Coeff-Com:  0.442D-03-0.153D-01-0.101D-01-0.124D-01 0.100D+00 0.233D+00
 Coeff-Com:  0.704D+00
 Coeff:      0.442D-03-0.153D-01-0.101D-01-0.124D-01 0.100D+00 0.233D+00
 Coeff:      0.704D+00
 Gap=     0.244 Goal=   None    Shift=    0.000
 RMSDP=1.07D-08 MaxDP=7.69D-07 DE=-2.49D-10 OVMax= 1.33D-06

 Cycle  15  Pass 1  IDiag  1:
 RMSU=  8.16D-09    CP:  1.00D+00  1.03D+00  5.03D-01  9.95D-01  9.90D-01
                    CP:  8.87D-01  1.08D+00
 E= -1991.39054460414     Delta-E=        0.000000000036 Rises=F Damp=F
 DIIS: error= 7.32D-08 at cycle   8 NSaved=   8.
 NSaved= 8 IEnMin= 7 EnMin= -1991.39054460417     IErMin= 8 ErrMin= 7.32D-08
 ErrMax= 7.32D-08  0.00D+00 EMaxC= 1.00D-01 BMatC= 2.80D-12 BMatP= 1.72D-11
 IDIUse=1 WtCom= 1.00D+00 WtEn= 0.00D+00
 Coeff-Com: -0.335D-04 0.204D-02 0.162D-02-0.109D-01-0.510D-01-0.285D-01
 Coeff-Com:  0.288D+00 0.798D+00
 Coeff:     -0.335D-04 0.204D-02 0.162D-02-0.109D-01-0.510D-01-0.285D-01
 Coeff:      0.288D+00 0.798D+00
 Gap=     0.244 Goal=   None    Shift=    0.000
 RMSDP=4.71D-09 MaxDP=3.45D-07 DE= 3.64D-11 OVMax= 7.87D-07

 SCF Done:  E(RM062X) =  -1991.39054460     A.U. after   15 cycles
            NFock= 15  Conv=0.47D-08     -V/T= 2.0076
 KE= 1.976460894985D+03 PE=-1.440943559812D+04 EE= 5.563129789755D+03
 Leave Link  502 at Fri Feb  8 01:42:01 2019, MaxMem=   104857600 cpu:            3637.9 elap:             151.9
 (Enter /home/xinyan/g16/l601.exe)
 Copying SCF densities to generalized density rwf, IOpCl= 0 IROHF=0.

 **********************************************************************

            Population analysis using the SCF density.

 **********************************************************************

 Orbital symmetries:
       Occupied  (A) (A) (A) (A) (A) (A) (A) (A) (A) (A) (A) (A)
                 (A) (A) (A) (A) (A) (A) (A) (A) (A) (A) (A) (A)
                 (A) (A) (A) (A) (A) (A) (A) (A) (A) (A) (A) (A)
                 (A) (A) (A) (A) (A) (A) (A) (A) (A) (A) (A) (A)
                 (A) (A) (A) (A) (A) (A) (A) (A) (A) (A) (A) (A)
                 (A) (A) (A) (A) (A) (A) (A) (A) (A) (A) (A) (A)
                 (A) (A) (A) (A) (A) (A) (A) (A) (A) (A) (A) (A)
                 (A) (A) (A) (A) (A) (A) (A) (A) (A) (A) (A) (A)
                 (A) (A) (A) (A) (A) (A) (A) (A) (A) (A) (A) (A)
                 (A) (A) (A) (A) (A) (A) (A) (A) (A) (A) (A) (A)
                 (A) (A) (A) (A) (A) (A) (A) (A) (A) (A) (A) (A)
                 (A) (A) (A) (A) (A) (A) (A) (A)
       Virtual   (A) (A) (A) (A) (A) (A) (A) (A) (A) (A) (A) (A)
                 (A) (A) (A) (A) (A) (A) (A) (A) (A) (A) (A) (A)
                 (A) (A) (A) (A) (A) (A) (A) (A) (A) (A) (A) (A)
                 (A) (A) (A) (A) (A) (A) (A) (A) (A) (A) (A) (A)
                 (A) (A) (A) (A) (A) (A) (A) (A) (A) (A) (A) (A)
                 (A) (A) (A) (A) (A) (A) (A) (A) (A) (A) (A) (A)
                 (A) (A) (A) (A) (A) (A) (A) (A) (A) (A) (A) (A)
                 (A) (A) (A) (A) (A) (A) (A) (A) (A) (A) (A) (A)
                 (A) (A) (A) (A) (A) (A) (A) (A) (A) (A) (A) (A)
                 (A) (A) (A) (A) (A) (A) (A) (A) (A) (A) (A) (A)
                 (A) (A) (A) (A) (A) (A) (A) (A) (A) (A) (A) (A)
                 (A) (A) (A) (A) (A) (A) (A) (A) (A) (A) (A) (A)
                 (A) (A) (A) (A) (A) (A) (A) (A) (A) (A) (A) (A)
                 (A) (A) (A) (A) (A) (A) (A) (A) (A) (A) (A) (A)
                 (A) (A) (A) (A) (A) (A) (A) (A) (A) (A) (A) (A)
                 (A) (A) (A) (A) (A) (A) (A) (A) (A) (A) (A) (A)
                 (A) (A) (A) (A) (A) (A) (A) (A) (A) (A) (A) (A)
                 (A) (A) (A) (A) (A) (A) (A) (A) (A) (A) (A) (A)
                 (A) (A) (A) (A) (A) (A) (A) (A) (A) (A) (A) (A)
                 (A) (A) (A) (A) (A) (A) (A) (A) (A) (A) (A) (A)
                 (A) (A) (A) (A) (A) (A) (A) (A) (A) (A) (A) (A)
                 (A) (A) (A) (A) (A) (A) (A) (A) (A) (A) (A) (A)
                 (A) (A) (A) (A) (A) (A) (A) (A) (A) (A) (A) (A)
                 (A) (A) (A) (A) (A) (A) (A) (A) (A) (A) (A) (A)
                 (A) (A) (A) (A) (A) (A) (A) (A) (A) (A) (A) (A)
                 (A) (A) (A) (A) (A) (A) (A) (A) (A) (A) (A) (A)
                 (A) (A) (A) (A) (A) (A) (A) (A) (A) (A) (A) (A)
                 (A) (A) (A) (A) (A) (A) (A) (A) (A) (A) (A) (A)
                 (A) (A) (A) (A) (A) (A) (A) (A) (A) (A) (A) (A)
                 (A) (A) (A) (A) (A) (A) (A) (A) (A) (A) (A) (A)
                 (A) (A) (A) (A) (A) (A) (A) (A) (A) (A) (A) (A)
                 (A) (A) (A) (A) (A) (A) (A) (A) (A) (A) (A) (A)
                 (A) (A) (A) (A) (A) (A) (A) (A) (A) (A) (A) (A)
                 (A) (A) (A) (A) (A) (A) (A) (A) (A) (A) (A) (A)
                 (A) (A) (A) (A) (A) (A) (A) (A) (A) (A) (A) (A)
                 (A) (A) (A) (A) (A) (A) (A) (A) (A) (A) (A) (A)
                 (A) (A) (A) (A) (A) (A) (A) (A) (A) (A) (A) (A)
                 (A) (A) (A) (A) (A) (A) (A) (A) (A) (A) (A) (A)
                 (A) (A) (A) (A) (A) (A) (A) (A) (A) (A) (A) (A)
                 (A) (A) (A) (A) (A) (A) (A) (A) (A) (A) (A) (A)
                 (A) (A) (A) (A) (A) (A)
 The electronic state is 1-A.
 Alpha  occ. eigenvalues --  -90.10405 -19.63401 -19.60117 -19.59343 -19.58637
 Alpha  occ. eigenvalues --  -19.58384 -14.84820 -14.80539 -14.69447 -10.65448
 Alpha  occ. eigenvalues --  -10.63247 -10.62381 -10.61535 -10.59166 -10.59142
 Alpha  occ. eigenvalues --  -10.59020 -10.57813 -10.57417 -10.56860 -10.56652
 Alpha  occ. eigenvalues --  -10.56093 -10.55783 -10.55484 -10.54964 -10.54917
 Alpha  occ. eigenvalues --  -10.54855 -10.54568 -10.54534 -10.54483 -10.53805
 Alpha  occ. eigenvalues --  -10.53731 -10.53559 -10.53115 -10.52913 -10.52650
 Alpha  occ. eigenvalues --  -10.52488  -8.41371  -6.33609  -6.33516  -6.33436
 Alpha  occ. eigenvalues --   -1.19143  -1.17940  -1.12953  -1.10358  -1.09857
 Alpha  occ. eigenvalues --   -1.09184  -1.06208  -0.97568  -0.95245  -0.94837
 Alpha  occ. eigenvalues --   -0.92197  -0.89862  -0.88606  -0.87980  -0.85021
 Alpha  occ. eigenvalues --   -0.84968  -0.83651  -0.83508  -0.83303  -0.80227
 Alpha  occ. eigenvalues --   -0.79078  -0.76373  -0.75674  -0.74667  -0.70953
 Alpha  occ. eigenvalues --   -0.70199  -0.69035  -0.68749  -0.68372  -0.67982
 Alpha  occ. eigenvalues --   -0.65723  -0.64726  -0.63964  -0.63439  -0.61665
 Alpha  occ. eigenvalues --   -0.60286  -0.59413  -0.58941  -0.58376  -0.56178
 Alpha  occ. eigenvalues --   -0.55485  -0.55159  -0.55068  -0.54006  -0.53660
 Alpha  occ. eigenvalues --   -0.53434  -0.53086  -0.52324  -0.51985  -0.51733
 Alpha  occ. eigenvalues --   -0.51178  -0.51018  -0.50613  -0.50269  -0.49833
 Alpha  occ. eigenvalues --   -0.49632  -0.49420  -0.48857  -0.48375  -0.48019
 Alpha  occ. eigenvalues --   -0.47762  -0.47172  -0.46965  -0.46865  -0.45956
 Alpha  occ. eigenvalues --   -0.45885  -0.45257  -0.43973  -0.43652  -0.43424
 Alpha  occ. eigenvalues --   -0.42757  -0.42429  -0.42286  -0.41923  -0.41857
 Alpha  occ. eigenvalues --   -0.41163  -0.40816  -0.40608  -0.39930  -0.39517
 Alpha  occ. eigenvalues --   -0.39379  -0.39172  -0.38695  -0.38376  -0.37778
 Alpha  occ. eigenvalues --   -0.37390  -0.36292  -0.35942  -0.35391  -0.35107
 Alpha  occ. eigenvalues --   -0.34427  -0.33167  -0.32134  -0.31681  -0.31515
 Alpha  occ. eigenvalues --   -0.29826  -0.28879  -0.28327  -0.27570  -0.25462
 Alpha virt. eigenvalues --   -0.01023   0.00642   0.03348   0.03829   0.09089
 Alpha virt. eigenvalues --    0.10108   0.10963   0.11720   0.13009   0.13388
 Alpha virt. eigenvalues --    0.13785   0.14179   0.15249   0.15558   0.15730
 Alpha virt. eigenvalues --    0.16269   0.16526   0.17156   0.17436   0.17870
 Alpha virt. eigenvalues --    0.18230   0.18330   0.18579   0.18890   0.19019
 Alpha virt. eigenvalues --    0.19386   0.19616   0.20212   0.20297   0.20334
 Alpha virt. eigenvalues --    0.20855   0.21054   0.21126   0.21497   0.21815
 Alpha virt. eigenvalues --    0.22324   0.22417   0.22822   0.22836   0.23253
 Alpha virt. eigenvalues --    0.23485   0.24085   0.24249   0.24319   0.24621
 Alpha virt. eigenvalues --    0.24909   0.24982   0.25463   0.26138   0.26361
 Alpha virt. eigenvalues --    0.27046   0.27306   0.27745   0.28023   0.28158
 Alpha virt. eigenvalues --    0.28710   0.29079   0.29649   0.30327   0.30414
 Alpha virt. eigenvalues --    0.30847   0.31054   0.31391   0.31773   0.32476
 Alpha virt. eigenvalues --    0.32701   0.33357   0.34612   0.35271   0.35448
 Alpha virt. eigenvalues --    0.35724   0.36553   0.37133   0.38448   0.38513
 Alpha virt. eigenvalues --    0.38847   0.39721   0.41443   0.42080   0.42808
 Alpha virt. eigenvalues --    0.45038   0.47189   0.47636   0.48615   0.50096
 Alpha virt. eigenvalues --    0.51358   0.52708   0.53554   0.53998   0.55389
 Alpha virt. eigenvalues --    0.55649   0.56106   0.56998   0.57181   0.57939
 Alpha virt. eigenvalues --    0.58037   0.58182   0.58770   0.59002   0.59373
 Alpha virt. eigenvalues --    0.59576   0.60317   0.60849   0.61083   0.61248
 Alpha virt. eigenvalues --    0.61441   0.61595   0.61795   0.62413   0.62612
 Alpha virt. eigenvalues --    0.63388   0.63859   0.64463   0.64837   0.65302
 Alpha virt. eigenvalues --    0.65898   0.66526   0.66676   0.67148   0.67423
 Alpha virt. eigenvalues --    0.67596   0.68362   0.68699   0.69646   0.69989
 Alpha virt. eigenvalues --    0.70326   0.70798   0.71486   0.71713   0.72283
 Alpha virt. eigenvalues --    0.72977   0.73520   0.73976   0.74448   0.75099
 Alpha virt. eigenvalues --    0.75493   0.75960   0.76395   0.76702   0.77513
 Alpha virt. eigenvalues --    0.77946   0.78334   0.78994   0.79940   0.80886
 Alpha virt. eigenvalues --    0.81037   0.81378   0.82257   0.83044   0.83396
 Alpha virt. eigenvalues --    0.84150   0.84870   0.85104   0.85431   0.86401
 Alpha virt. eigenvalues --    0.87049   0.87929   0.88057   0.88189   0.88587
 Alpha virt. eigenvalues --    0.89235   0.89848   0.90275   0.90363   0.90571
 Alpha virt. eigenvalues --    0.91074   0.91479   0.92213   0.92689   0.92716
 Alpha virt. eigenvalues --    0.92928   0.93468   0.93857   0.94263   0.94720
 Alpha virt. eigenvalues --    0.95185   0.95454   0.96260   0.96559   0.96579
 Alpha virt. eigenvalues --    0.96809   0.96989   0.97087   0.97553   0.97929
 Alpha virt. eigenvalues --    0.98389   0.98896   0.99160   0.99541   0.99883
 Alpha virt. eigenvalues --    1.00137   1.00454   1.01643   1.01702   1.01946
 Alpha virt. eigenvalues --    1.02578   1.02768   1.03410   1.03832   1.04213
 Alpha virt. eigenvalues --    1.04562   1.05308   1.06046   1.06348   1.06848
 Alpha virt. eigenvalues --    1.07968   1.08106   1.08417   1.10257   1.10996
 Alpha virt. eigenvalues --    1.11552   1.12447   1.12593   1.13755   1.14027
 Alpha virt. eigenvalues --    1.15125   1.15492   1.16405   1.17375   1.17785
 Alpha virt. eigenvalues --    1.18516   1.19079   1.19604   1.20825   1.21640
 Alpha virt. eigenvalues --    1.22204   1.23117   1.23757   1.24282   1.25274
 Alpha virt. eigenvalues --    1.26076   1.26884   1.27224   1.28075   1.28639
 Alpha virt. eigenvalues --    1.30248   1.30537   1.30822   1.31413   1.33094
 Alpha virt. eigenvalues --    1.33822   1.34454   1.35040   1.35697   1.36468
 Alpha virt. eigenvalues --    1.36910   1.38270   1.39226   1.39607   1.40535
 Alpha virt. eigenvalues --    1.41141   1.41773   1.43230   1.43414   1.44602
 Alpha virt. eigenvalues --    1.45663   1.46244   1.47475   1.48137   1.49256
 Alpha virt. eigenvalues --    1.49495   1.50248   1.50971   1.51478   1.51747
 Alpha virt. eigenvalues --    1.52276   1.53003   1.54296   1.54701   1.55309
 Alpha virt. eigenvalues --    1.55614   1.56316   1.57195   1.58058   1.58423
 Alpha virt. eigenvalues --    1.59852   1.60158   1.60713   1.61777   1.63405
 Alpha virt. eigenvalues --    1.66702   1.67695   1.69743   1.70955   1.71549
 Alpha virt. eigenvalues --    1.72653   1.73741   1.74672   1.75741   1.77027
 Alpha virt. eigenvalues --    1.77877   1.78752   1.79220   1.80105   1.81424
 Alpha virt. eigenvalues --    1.81596   1.82315   1.82883   1.84493   1.84729
 Alpha virt. eigenvalues --    1.85522   1.86410   1.86695   1.87395   1.87821
 Alpha virt. eigenvalues --    1.88727   1.89374   1.90289   1.91259   1.91781
 Alpha virt. eigenvalues --    1.92149   1.92521   1.92594   1.93167   1.93583
 Alpha virt. eigenvalues --    1.94272   1.94478   1.95141   1.95803   1.96419
 Alpha virt. eigenvalues --    1.96858   1.97696   1.98538   1.98906   1.99706
 Alpha virt. eigenvalues --    2.00124   2.00899   2.01681   2.02677   2.02901
 Alpha virt. eigenvalues --    2.03450   2.03719   2.03918   2.05111   2.05248
 Alpha virt. eigenvalues --    2.05695   2.06208   2.06937   2.07175   2.07521
 Alpha virt. eigenvalues --    2.08703   2.09016   2.09752   2.10633   2.11274
 Alpha virt. eigenvalues --    2.11835   2.12536   2.12986   2.13908   2.14316
 Alpha virt. eigenvalues --    2.14878   2.15465   2.16130   2.16374   2.17270
 Alpha virt. eigenvalues --    2.18195   2.18752   2.19594   2.20538   2.21016
 Alpha virt. eigenvalues --    2.21642   2.21936   2.22926   2.23962   2.24205
 Alpha virt. eigenvalues --    2.25075   2.25297   2.25571   2.27181   2.28203
 Alpha virt. eigenvalues --    2.28799   2.29335   2.30195   2.30976   2.31966
 Alpha virt. eigenvalues --    2.32034   2.32431   2.32951   2.34550   2.35328
 Alpha virt. eigenvalues --    2.35623   2.36406   2.36991   2.38135   2.38384
 Alpha virt. eigenvalues --    2.39301   2.39707   2.39963   2.41584   2.42124
 Alpha virt. eigenvalues --    2.42917   2.43674   2.44462   2.45009   2.46661
 Alpha virt. eigenvalues --    2.48425   2.50360   2.51056   2.51324   2.52117
 Alpha virt. eigenvalues --    2.53420   2.54253   2.54556   2.56020   2.56283
 Alpha virt. eigenvalues --    2.59021   2.60186   2.61414   2.62173   2.63267
 Alpha virt. eigenvalues --    2.63582   2.65365   2.65741   2.66723   2.68031
 Alpha virt. eigenvalues --    2.68542   2.68828   2.69803   2.70614   2.71294
 Alpha virt. eigenvalues --    2.72808   2.73604   2.74401   2.76268   2.76657
 Alpha virt. eigenvalues --    2.76818   2.77784   2.79504   2.79553   2.80305
 Alpha virt. eigenvalues --    2.83599   2.83998   2.86094   2.87171   2.89019
 Alpha virt. eigenvalues --    2.92467   2.93554   2.94209   2.95751   2.97065
 Alpha virt. eigenvalues --    2.99122   2.99794   3.01416   3.02309   3.10516
 Alpha virt. eigenvalues --    3.17425   3.19689   3.23786   3.42663   3.43217
 Alpha virt. eigenvalues --    3.96178   4.00395   4.07267   4.10180   4.12189
 Alpha virt. eigenvalues --    4.13973   4.15480   4.17442   4.17804   4.19835
 Alpha virt. eigenvalues --    4.21999   4.24604   4.24724   4.26105   4.26682
 Alpha virt. eigenvalues --    4.29824   4.31003   4.32335   4.34834   4.35583
 Alpha virt. eigenvalues --    4.36731   4.37934   4.38670   4.41751   4.43718
 Alpha virt. eigenvalues --    4.46700   4.49482   4.50965   4.58280   4.58639
 Alpha virt. eigenvalues --    4.62130   4.63838   4.65753   4.75077   4.75393
 Alpha virt. eigenvalues --    4.78332
          Condensed to atoms (all electrons):
 Mulliken charges:
               1
     1  C   -0.304013
     2  C   -0.304219
     3  C   -0.309843
     4  C   -0.073575
     5  C    0.061827
     6  C   -0.305433
     7  H    0.165760
     8  H    0.160895
     9  H    0.159224
    10  H    0.146849
    11  H    0.156627
    12  H    0.213265
    13  H    0.141346
    14  H    0.180167
    15  H    0.148314
    16  H    0.151570
    17  N   -0.424728
    18  C    0.100685
    19  C    0.084660
    20  C   -0.228163
    21  H    0.205921
    22  C   -0.227313
    23  H    0.263978
    24  C    0.428805
    25  H    0.188316
    26  H    0.206660
    27  N   -0.529822
    28  C   -0.156371
    29  H    0.178443
    30  H    0.198793
    31  C   -0.147473
    32  H    0.169476
    33  H    0.196724
    34  N   -0.754777
    35  S    1.248857
    36  O   -0.646986
    37  O   -0.671146
    38  C    0.048714
    39  C   -0.177002
    40  C   -0.187015
    41  C   -0.170246
    42  C   -0.162688
    43  C   -0.197005
    44  H    0.200327
    45  H    0.139963
    46  H    0.156494
    47  H    0.161734
    48  H    0.155985
    49  O   -0.708910
    50  H    0.479479
    51  C    0.641398
    52  O   -0.524034
    53  O   -0.642936
    54  H    0.485531
    55  C   -0.366412
    56  H    0.199309
    57  H    0.163870
    58  C   -0.070111
    59  H    0.129263
    60  H    0.162655
    61  C   -0.655033
    62  H    0.217713
    63  H    0.188277
    64  H    0.208344
    65  C   -0.286817
    66  H    0.142754
    67  H    0.169654
    68  C   -0.480565
    69  H    0.158178
    70  H    0.158853
    71  H    0.149268
    72  C   -0.337531
    73  H    0.183789
    74  H    0.170115
    75  C   -0.335551
    76  H    0.183457
    77  H    0.173438
 Sum of Mulliken charges =  -0.00000
 Mulliken charges with hydrogens summed into heavy atoms:
               1
     1  C   -0.000538
     2  C    0.015899
     3  C    0.007487
     4  C    0.139690
     5  C    0.203173
     6  C    0.023048
    17  N   -0.424728
    18  C    0.306605
    19  C    0.348638
    20  C   -0.039846
    22  C   -0.020653
    24  C    0.428805
    27  N   -0.529822
    28  C    0.220865
    31  C    0.218727
    34  N   -0.754777
    35  S    1.248857
    36  O   -0.646986
    37  O   -0.671146
    38  C    0.048714
    39  C    0.023325
    40  C   -0.047052
    41  C   -0.013753
    42  C   -0.000954
    43  C   -0.041020
    49  O   -0.229431
    51  C    0.641398
    52  O   -0.524034
    53  O   -0.157405
    55  C   -0.003233
    58  C    0.221807
    61  C   -0.040699
    65  C    0.025590
    68  C   -0.014265
    72  C    0.016372
    75  C    0.021344
 Electronic spatial extent (au):  <R**2>=          15160.1437
 Charge=              0.0000 electrons
 Dipole moment (field-independent basis, Debye):
    X=              1.5920    Y=             -0.4222    Z=             -6.4734  Tot=              6.6796
 Quadrupole moment (field-independent basis, Debye-Ang):
   XX=           -197.5130   YY=           -224.0263   ZZ=           -221.3905
   XY=            -12.2721   XZ=             -1.6770   YZ=             12.1774
 Traceless Quadrupole moment (field-independent basis, Debye-Ang):
   XX=             16.7970   YY=             -9.7164   ZZ=             -7.0805
   XY=            -12.2721   XZ=             -1.6770   YZ=             12.1774
 Octapole moment (field-independent basis, Debye-Ang**2):
  XXX=             78.3766  YYY=            -29.9524  ZZZ=              2.7765  XYY=             21.8667
  XXY=            -13.6507  XXZ=            -23.9136  XZZ=             -7.5367  YZZ=             19.5795
  YYZ=              7.2089  XYZ=            -16.0702
 Hexadecapole moment (field-independent basis, Debye-Ang**3):
 XXXX=         -10063.5978 YYYY=          -5807.9053 ZZZZ=          -3908.5576 XXXY=           -180.2749
 XXXZ=            -20.8210 YYYX=           -103.7105 YYYZ=             93.1419 ZZZX=            -83.6940
 ZZZY=              1.1459 XXYY=          -2654.3741 XXZZ=          -2389.0101 YYZZ=          -1745.8084
 XXYZ=             43.7015 YYXZ=             56.8931 ZZXY=            -38.7952
 N-N= 4.878454368780D+03 E-N=-1.440943556439D+04  KE= 1.976460894985D+03
 No NMR shielding tensors so no spin-rotation constants.
 Leave Link  601 at Fri Feb  8 01:42:02 2019, MaxMem=   104857600 cpu:              24.9 elap:               1.2
 (Enter /home/xinyan/g16/l701.exe)
 ... and contract with generalized density number  0.
 Compute integral first derivatives.
 R6Disp: Adding Grimme-D3 dispersion energy 1st derivatives to the gradient.
 Leave Link  701 at Fri Feb  8 01:42:03 2019, MaxMem=   104857600 cpu:              21.7 elap:               1.0
 (Enter /home/xinyan/g16/l702.exe)
 L702 exits ... SP integral derivatives will be done elsewhere.
 Leave Link  702 at Fri Feb  8 01:42:03 2019, MaxMem=   104857600 cpu:               1.4 elap:               0.1
 (Enter /home/xinyan/g16/l703.exe)
 Integral derivatives from FoFJK, PRISM(SPDF).
 Compute integral first derivatives, UseDBF=F ICtDFT=           0.
 Calling FoFJK, ICntrl=      2127 FMM=T ISym2X=0 I1Cent= 0 IOpClX= 0 NMat=1 NMatS=1 NMatT=0.
 FoFJK:  IHMeth= 1 ICntrl=    2127 DoSepK=F KAlg= 0 I1Cent=           0 FoldK=F
 IRaf=         0 NMat=       1 IRICut=       1 DoRegI=T DoRafI=F ISym2E= 0 IDoP0=0 IntGTp=1.
 FoFCou: FMM=T IPFlag=           0 FMFlag=      100000 FMFlg1=        2001
         NFxFlg=           0 DoJE=F BraDBF=F KetDBF=F FulRan=T
         wScrn=  0.000000 ICntrl=      2127 IOpCl=  0 I1Cent=           0 NGrid=           0
         NMat0=    1 NMatS0=      1 NMatT0=    0 NMatD0=    1 NMtDS0=    0 NMtDT0=    0
 Symmetry not used in FoFCou.
 FMM levels:  10  Number of levels for PrismC:   9
 Leave Link  703 at Fri Feb  8 01:42:34 2019, MaxMem=   104857600 cpu:             737.8 elap:              30.8
 (Enter /home/xinyan/g16/l716.exe)
 Dipole        = 6.26345266D-01-1.66113513D-01-2.54682490D+00
 ***** Axes restored to original set *****
 -------------------------------------------------------------------
 Center     Atomic                   Forces (Hartrees/Bohr)
 Number     Number              X              Y              Z
 -------------------------------------------------------------------
      1        6          -0.000003315   -0.000101204   -0.000099554
      2        6           0.000062659    0.000011270    0.000103099
      3        6           0.000012684   -0.000040085    0.000007456
      4        6           0.000016802    0.000141587    0.000180094
      5        6          -0.000065998    0.000037905   -0.000062638
      6        6           0.000044109    0.000095850    0.000153652
      7        1          -0.000005699    0.000044415    0.000024164
      8        1           0.000014583    0.000019354    0.000039219
      9        1           0.000002622    0.000045954    0.000066564
     10        1           0.000006942    0.000044022    0.000044161
     11        1           0.000011517    0.000027211    0.000070986
     12        1           0.000049547   -0.000031266    0.000112310
     13        1          -0.000031371   -0.000164476    0.000156082
     14        1           0.000017677    0.000018684    0.000037495
     15        1           0.000035589    0.000014892    0.000053129
     16        1          -0.000042546    0.000047574    0.000029788
     17        7          -0.000024521   -0.000041223    0.000060782
     18        6          -0.000000785    0.000041492    0.000002627
     19        6           0.000027983    0.000030503   -0.000036441
     20        6           0.000012924    0.000030534    0.000009718
     21        1           0.000024240    0.000093272    0.000053290
     22        6          -0.000001974   -0.000045999    0.000008132
     23        1           0.000017701    0.000021687    0.000033542
     24        6           0.000017018   -0.000055030   -0.000046497
     25        1           0.000001226    0.000058086    0.000027753
     26        1           0.000014728    0.000012817   -0.000010328
     27        7           0.000019367    0.000069695   -0.000017267
     28        6           0.000020591   -0.000078439   -0.000073692
     29        1          -0.000003031   -0.000041256   -0.000103037
     30        1           0.000045192   -0.000080116   -0.000042047
     31        6           0.000025402    0.000018872   -0.000013152
     32        1          -0.000022404    0.000025162   -0.000046793
     33        1          -0.000000887    0.000034310    0.000019707
     34        7           0.000203301    0.000094204   -0.000048612
     35       16          -0.000090477    0.000093216   -0.000013554
     36        8          -0.000018402    0.000041900   -0.000009760
     37        8           0.000106126   -0.000052586    0.000024773
     38        6          -0.000045849   -0.000021568   -0.000096410
     39        6          -0.000039183    0.000106816    0.000012297
     40        6           0.000021156    0.000001741   -0.000058663
     41        6           0.000038072    0.000038939   -0.000109965
     42        6           0.000038097   -0.000062594   -0.000212657
     43        6          -0.000008871   -0.000059838   -0.000096252
     44        1          -0.000045767    0.000051613   -0.000026850
     45        1           0.000139773    0.000040386   -0.000021706
     46        1           0.000144424   -0.000022883   -0.000143975
     47        1          -0.000021502   -0.000052872   -0.000230852
     48        1          -0.000177214   -0.000052421   -0.000146302
     49        8          -0.000145916   -0.000096021   -0.000133259
     50        1           0.000175775    0.000274521    0.000023567
     51        6           0.000040904   -0.000025991    0.000022827
     52        8          -0.000166627    0.000050233    0.000123247
     53        8          -0.000069161    0.000058458    0.000135683
     54        1          -0.000013128    0.000059786    0.000060789
     55        6          -0.000004677    0.000031516    0.000037121
     56        1           0.000057463   -0.000004191    0.000070539
     57        1           0.000040261   -0.000033685    0.000018517
     58        6          -0.000288432   -0.000329804   -0.000043039
     59        1          -0.000169949   -0.000243217   -0.000119768
     60        1          -0.000289770    0.000245769    0.000128207
     61        6           0.000068676    0.000029327    0.000047982
     62        1          -0.000020068   -0.000049864    0.000039059
     63        1           0.000021940    0.000008790    0.000048108
     64        1           0.000007466   -0.000030424    0.000043976
     65        6          -0.000051510    0.000007931    0.000057090
     66        1          -0.000023208    0.000012713    0.000040214
     67        1           0.000014244    0.000046606    0.000121427
     68        6           0.000009001   -0.000005237    0.000071579
     69        1           0.000005297    0.000040299    0.000044004
     70        1           0.000072358   -0.000017926    0.000092184
     71        1           0.000065018   -0.000050639    0.000004702
     72        6           0.000032892   -0.000034906   -0.000105628
     73        1           0.000043142   -0.000123117   -0.000128799
     74        1          -0.000042593   -0.000060349   -0.000146168
     75        6           0.000028688   -0.000084487    0.000000837
     76        1           0.000040985   -0.000098603   -0.000049243
     77        1           0.000018670   -0.000027598   -0.000069570
 -------------------------------------------------------------------
 Cartesian Forces:  Max     0.000329804 RMS     0.000082639
 Z-matrix is all fixed cartesians, so copy forces.
 Leave Link  716 at Fri Feb  8 01:42:34 2019, MaxMem=   104857600 cpu:               2.4 elap:               0.1
 (Enter /home/xinyan/g16/l103.exe)

 GradGradGradGradGradGradGradGradGradGradGradGradGradGradGradGradGradGrad
 Berny optimization.
 Search for a local minimum.
 Step number   1 out of a maximum of    2
 All quantities printed in internal units (Hartrees-Bohrs-Radians)
 Second derivative matrix not updated -- first step.
 ITU=  0
     Eigenvalues ---   -0.00000  -0.00000   0.00000   0.00000   0.00000
     Eigenvalues ---    0.00000   0.00000   0.00000   0.00000   0.00000
     Eigenvalues ---    0.00000   0.00000   0.00014   0.00018   0.00033
     Eigenvalues ---    0.00063   0.00116   0.00133   0.00163   0.00181
     Eigenvalues ---    0.00204   0.00218   0.00275   0.00284   0.00394
     Eigenvalues ---    0.00448   0.00512   0.00513   0.00590   0.00597
     Eigenvalues ---    0.00667   0.00676   0.00776   0.00976   0.01027
     Eigenvalues ---    0.01234   0.01645   0.01724   0.01794   0.01829
     Eigenvalues ---    0.01889   0.02010   0.02220   0.02389   0.02520
     Eigenvalues ---    0.02603   0.02702   0.02804   0.03096   0.03525
     Eigenvalues ---    0.03539   0.03573   0.03631   0.03676   0.04083
     Eigenvalues ---    0.04168   0.04219   0.04305   0.04464   0.04802
     Eigenvalues ---    0.04861   0.04880   0.05002   0.05046   0.05060
     Eigenvalues ---    0.05103   0.05134   0.05170   0.05301   0.05349
     Eigenvalues ---    0.05496   0.05594   0.05669   0.05697   0.05746
     Eigenvalues ---    0.05767   0.05794   0.06149   0.06272   0.06382
     Eigenvalues ---    0.06444   0.06512   0.06844   0.06964   0.07018
     Eigenvalues ---    0.07114   0.07190   0.07240   0.07295   0.07348
     Eigenvalues ---    0.07552   0.07884   0.07934   0.08018   0.08127
     Eigenvalues ---    0.08183   0.08568   0.08703   0.09127   0.09665
     Eigenvalues ---    0.09743   0.10006   0.10107   0.10157   0.10211
     Eigenvalues ---    0.11211   0.11411   0.11585   0.11918   0.12415
     Eigenvalues ---    0.12904   0.12974   0.13008   0.13048   0.13298
     Eigenvalues ---    0.13723   0.13790   0.13945   0.14182   0.14356
     Eigenvalues ---    0.15832   0.16358   0.16563   0.16614   0.16739
     Eigenvalues ---    0.16917   0.17212   0.17337   0.17625   0.17711
     Eigenvalues ---    0.18608   0.19045   0.20321   0.20665   0.20755
     Eigenvalues ---    0.21093   0.21804   0.22012   0.23204   0.24754
     Eigenvalues ---    0.26468   0.27621   0.29657   0.29823   0.30079
     Eigenvalues ---    0.30264   0.31622   0.32520   0.34303   0.34856
     Eigenvalues ---    0.35043   0.36673   0.39321   0.41744   0.42386
     Eigenvalues ---    0.43953   0.44985   0.45109   0.48440   0.49333
     Eigenvalues ---    0.50309   0.56062   0.57294   0.59202   0.62504
     Eigenvalues ---    0.65024   0.65810   0.68019   0.68312   0.69299
     Eigenvalues ---    0.70685   0.75511   0.77849   0.78435   0.79660
     Eigenvalues ---    0.82287   0.83033   0.83973   0.85912   0.87078
     Eigenvalues ---    0.89021   0.89441   0.90570   0.91145   0.92308
     Eigenvalues ---    0.93309   0.94045   0.94470   0.95443   0.96002
     Eigenvalues ---    0.96369   0.97484   0.99817   1.00021   1.00304
     Eigenvalues ---    1.01183   1.01976   1.04074   1.04489   1.05563
     Eigenvalues ---    1.05991   1.06215   1.06494   1.07816   1.08806
     Eigenvalues ---    1.09913   1.14219   1.16483   1.17200   1.20103
     Eigenvalues ---    1.22997   1.24011   1.28214   1.37083   1.40305
     Eigenvalues ---    1.48429   1.54147   1.57208   1.59459   1.60476
     Eigenvalues ---    1.71282   1.75783   1.81835   2.11388   2.28449
 Eigenvalue     1 is  -5.55D-16 should be greater than     0.000000 Eigenvector:
                          Y46       Y41       Y45       Y47       Y40
   1                    0.17888   0.17888   0.17888   0.17888   0.17888
                          Y42       Y39       Y43       Y44       Y48
   1                    0.17888   0.17888   0.17888   0.17888   0.17888
 Eigenvalue     2 is  -1.11D-16 should be greater than     0.000000 Eigenvector:
                          Y56       Y53       Y57       Y54       Y55
   1                    0.16347   0.16347   0.16347   0.16347   0.16347
                          Y70       Y71       Y51       Y68       Y65
   1                    0.16347   0.16347   0.16347   0.16347   0.16347
 Eigenvalue     3 is   4.44D-16 Eigenvector:
                          X54       X53       X56       X57       X51
   1                    0.20944   0.20944   0.20944   0.20944   0.20944
                          X55       X52       X70       X71       X65
   1                    0.20944   0.20944   0.20944   0.20944   0.20944
 Eigenvalue     4 is   2.49D-09 Eigenvector:
                          Z44       Z50       Z49       Z45       X59
   1                    0.28274   0.25573   0.25503   0.23116  -0.21877
                          Z39       X60       X49       X58       Z40
   1                    0.20157  -0.19036  -0.18385  -0.17334   0.17233
 Eigenvalue     5 is   6.96D-09 Eigenvector:
                          X46       Z47       X45       Z48       X41
   1                    0.23444  -0.23238   0.22036  -0.19355   0.18412
                          X40       Z42       Z43       X47       Z46
   1                    0.17598  -0.17011  -0.14824   0.13258  -0.12888
 Eigenvalue     6 is   1.11D-08 Eigenvector:
                          Z54       Z53       Z52       Z69       Z51
   1                    0.44719   0.33181   0.31179  -0.26734   0.25008
                          Z71       Z70       Z68       Y66       Y69
   1                   -0.24446  -0.23545  -0.20240  -0.16184  -0.13666
 Eigenvalue     7 is   2.20D-08 Eigenvector:
                          X54       X69       X53       Y54       X70
   1                    0.39362  -0.33080   0.32316  -0.27611  -0.25113
                          Y71       X68       X51       X52       Y53
   1                    0.23353  -0.21773   0.20359   0.20204  -0.19650
 Eigenvalue     8 is   4.23D-08 Eigenvector:
                          Y47       X50       Y44       Y49       X49
   1                    0.36011  -0.34431  -0.26227  -0.25984  -0.24174
                          Y60       Y42       Y46       X47       Y48
   1                   -0.23072   0.22220   0.20668   0.20622   0.19855
 Eigenvalue     9 is   8.80D-08 Eigenvector:
                          Y45       Y59       Y46       Y40       X45
   1                    0.29539  -0.22625   0.20885   0.19251   0.18277
                          Y48       Z69       Z70       Y41       Y44
   1                   -0.17230  -0.15352  -0.15016   0.14418   0.14330
 Eigenvalue    10 is   1.15D-07 Eigenvector:
                          X60       X59       Y48       X48       Y59
   1                    0.22379   0.19755   0.19049   0.17901   0.17866
                          Y45       X58       X45       Y73       Y47
   1                   -0.17190   0.15623  -0.15425   0.14036   0.12932
 Eigenvalue    11 is   1.74D-07 Eigenvector:
                          Y64       Y62       Y61       Y63       Y37
   1                    0.24982   0.21004   0.20231   0.18863   0.15252
                          Y45       Y46       Z76       Z60       Y7
   1                    0.14990   0.14730  -0.14653   0.14600  -0.14392
 Eigenvalue    12 is   4.02D-06 Eigenvector:
                          X52       X66       X56       Z67       Z57
   1                    0.34297   0.33076  -0.31022  -0.30323   0.30244
                          X70       Z71       Y52       Y67       Y57
   1                   -0.28099   0.24362  -0.20120  -0.19416   0.18527
 Quadratic step=8.489D+00 exceeds max=3.000D-01 adjusted using Lamda=-2.895D-03.
 Angle between NR and scaled steps=  15.04 degrees.
 Angle between quadratic step and forces=  41.39 degrees.
 Linear search not attempted -- first point.
 B after Tr=    -0.000416    0.000919    0.000093
         Rot=    1.000000    0.000173    0.000028   -0.000028 Ang=   0.02 deg.
 Variable       Old X    -DE/DX   Delta X   Delta X   Delta X     New X
                                 (Linear)    (Quad)   (Total)
    X1       -9.34031  -0.00000   0.00000   0.00523   0.00481  -9.33550
    Y1        0.47761  -0.00010   0.00000   0.00588   0.00612   0.48373
    Z1       -0.43959  -0.00010   0.00000   0.01780   0.01721  -0.42238
    X2       -9.60219   0.00006   0.00000   0.00334   0.00314  -9.59905
    Y2       -1.89016   0.00001   0.00000   0.00576   0.00542  -1.88474
    Z2       -2.08390   0.00010   0.00000   0.01872   0.01894  -2.06496
    X3       -7.04817   0.00001   0.00000   0.00178   0.00169  -7.04648
    Y3       -2.63568  -0.00004   0.00000   0.00671   0.00612  -2.62956
    Z3       -3.23183   0.00001   0.00000   0.01534   0.01596  -3.21587
    X4       -5.16865   0.00002   0.00000   0.00481   0.00462  -5.16402
    Y4       -3.08326   0.00014   0.00000   0.00685   0.00710  -3.07616
    Z4       -1.09340   0.00018   0.00000   0.01302   0.01390  -1.07950
    X5       -4.78953  -0.00007   0.00000   0.00652   0.00611  -4.78342
    Y5       -0.65097   0.00004   0.00000   0.00642   0.00725  -0.64372
    Z5        0.50979  -0.00006   0.00000   0.01266   0.01271   0.52250
    X6       -7.35275   0.00004   0.00000   0.00789   0.00738  -7.34538
    Y6        0.12011   0.00010   0.00000   0.00685   0.00793   0.12804
    Z6        1.63378   0.00015   0.00000   0.01581   0.01545   1.64924
    X7       -7.22121  -0.00001   0.00000   0.00070   0.00077  -7.22044
    Y7       -4.32948   0.00004   0.00000   0.00738   0.00638  -4.32310
    Z7       -4.41123   0.00002   0.00000   0.01456   0.01575  -4.39547
    X8      -10.31524   0.00001   0.00000   0.00497   0.00480 -10.31044
    Y8       -3.46194   0.00002   0.00000   0.00555   0.00557  -3.45637
    Z8       -0.93235   0.00004   0.00000   0.01937   0.02009  -0.91227
    X9      -10.97817   0.00000   0.00000   0.00139   0.00126 -10.97691
    Y9       -1.57633   0.00005   0.00000   0.00608   0.00514  -1.57119
    Z9       -3.59698   0.00007   0.00000   0.02055   0.02058  -3.57640
   X10       -8.77239   0.00001   0.00000   0.00336   0.00292  -8.76947
   Y10        2.07263   0.00004   0.00000   0.00591   0.00577   2.07840
   Z10       -1.64263   0.00004   0.00000   0.01683   0.01573  -1.62690
   X11      -11.17076   0.00001   0.00000   0.00622   0.00572 -11.16503
   Y11        0.96737   0.00003   0.00000   0.00585   0.00628   0.97365
   Z11        0.39323   0.00007   0.00000   0.02007   0.01921   0.41245
   X12       -5.87329   0.00005   0.00000   0.00804   0.00787  -5.86542
   Y12       -4.58533  -0.00003   0.00000   0.00580   0.00644  -4.57889
   Z12        0.13714   0.00011   0.00000   0.01393   0.01528   0.15241
   X13       -4.27477  -0.00003   0.00000   0.00510   0.00468  -4.27009
   Y13        0.82609  -0.00016   0.00000   0.00564   0.00603   0.83212
   Z13       -0.85903   0.00016   0.00000   0.01227   0.01184  -0.84719
   X14       -7.96773   0.00002   0.00000   0.00943   0.00893  -7.95880
   Y14       -1.32838   0.00002   0.00000   0.00700   0.00850  -1.31988
   Z14        2.98454   0.00004   0.00000   0.01666   0.01677   3.00130
   X15       -7.07759   0.00004   0.00000   0.00919   0.00851  -7.06908
   Y15        1.88821   0.00001   0.00000   0.00699   0.00844   1.89665
   Z15        2.68035   0.00005   0.00000   0.01523   0.01428   2.69463
   X16       -6.40585  -0.00004   0.00000  -0.00100  -0.00111  -6.40696
   Y16       -1.07654   0.00005   0.00000   0.00769   0.00672  -1.06982
   Z16       -4.44371   0.00003   0.00000   0.01505   0.01516  -4.42855
   X17       -2.65095  -0.00002   0.00000   0.00336   0.00327  -2.64768
   Y17       -3.94399  -0.00004   0.00000   0.00827   0.00837  -3.93563
   Z17       -1.96233   0.00006   0.00000   0.00734   0.00864  -1.95369
   X18       -1.40197  -0.00000   0.00000   0.00141   0.00136  -1.40061
   Y18       -2.68182   0.00004   0.00000   0.01368   0.01321  -2.66861
   Z18       -3.80101   0.00000   0.00000   0.00961   0.01054  -3.79047
   X19       -1.33931   0.00003   0.00000   0.00473   0.00465  -1.33465
   Y19       -5.53359   0.00003   0.00000   0.00232   0.00301  -5.53058
   Z19       -0.44626  -0.00004   0.00000  -0.00011   0.00182  -0.44444
   X20        1.14047   0.00001   0.00000   0.00034   0.00032   1.14079
   Y20       -2.93516   0.00003   0.00000   0.01167   0.01122  -2.92394
   Z20       -4.15959   0.00001   0.00000   0.00353   0.00469  -4.15490
   X21       -2.52577   0.00002   0.00000   0.00111   0.00105  -2.52472
   Y21       -1.41397   0.00009   0.00000   0.01987   0.01894  -1.39502
   Z21       -4.94713   0.00005   0.00000   0.01670   0.01714  -4.92999
   X22        1.20682  -0.00000   0.00000   0.00366   0.00361   1.21043
   Y22       -5.87990  -0.00005   0.00000  -0.00104  -0.00030  -5.88020
   Z22       -0.68486   0.00001   0.00000  -0.00715  -0.00495  -0.68981
   X23       -2.41749   0.00002   0.00000   0.00684   0.00673  -2.41076
   Y23       -6.43922   0.00002   0.00000  -0.00030   0.00084  -6.43838
   Z23        1.04337   0.00003   0.00000  -0.00013   0.00206   1.04543
   X24        2.58643   0.00002   0.00000   0.00174   0.00172   2.58815
   Y24       -4.44271  -0.00006   0.00000   0.00231   0.00252  -4.44019
   Z24       -2.46904  -0.00005   0.00000  -0.00606  -0.00429  -2.47333
   X25        2.03357   0.00000   0.00000  -0.00129  -0.00129   2.03228
   Y25       -1.88464   0.00006   0.00000   0.01644   0.01552  -1.86913
   Z25       -5.66950   0.00003   0.00000   0.00588   0.00673  -5.66277
   X26        2.13603   0.00001   0.00000   0.00494   0.00489   2.14092
   Y26       -7.09949   0.00001   0.00000  -0.00622  -0.00495  -7.10445
   Z26        0.66503  -0.00001   0.00000  -0.01272  -0.01005   0.65498
   X27        5.11730   0.00002   0.00000   0.00147   0.00145   5.11875
   Y27       -4.47895   0.00007   0.00000  -0.00283  -0.00250  -4.48145
   Z27       -2.52959  -0.00002   0.00000  -0.01407  -0.01214  -2.54173
   X28        6.56366   0.00002   0.00000   0.00605   0.00598   6.56964
   Y28       -5.64202  -0.00008   0.00000  -0.01850  -0.01738  -5.65940
   Z28       -0.46858  -0.00007   0.00000  -0.02614  -0.02373  -0.49231
   X29        6.27493  -0.00000   0.00000  -0.00055  -0.00051   6.27442
   Y29       -7.68905  -0.00004   0.00000  -0.01770  -0.01659  -7.70564
   Z29       -0.43543  -0.00010   0.00000  -0.03618  -0.03308  -0.46851
   X30        5.92919   0.00005   0.00000   0.01645   0.01624   5.94542
   Y30       -4.83953  -0.00008   0.00000  -0.02632  -0.02461  -4.86414
   Z30        1.33898  -0.00004   0.00000  -0.01899  -0.01689   1.32210
   X31        6.58768   0.00003   0.00000   0.00187   0.00180   6.58948
   Y31       -2.50986   0.00002   0.00000   0.00054   0.00051  -2.50935
   Z31       -3.82709  -0.00001   0.00000  -0.00855  -0.00723  -3.83432
   X32        6.99758  -0.00002   0.00000  -0.00779  -0.00772   6.98986
   Y32       -3.09027   0.00003   0.00000   0.01079   0.01010  -3.08017
   Z32       -5.77461  -0.00005   0.00000  -0.01367  -0.01212  -5.78673
   X33        5.52416  -0.00000   0.00000   0.00697   0.00681   5.53097
   Y33       -0.73903   0.00003   0.00000   0.00379   0.00370  -0.73533
   Z33       -3.83656   0.00002   0.00000   0.00631   0.00696  -3.82960
   X34       -2.66378   0.00020   0.00000   0.00879   0.00829  -2.65548
   Y34       -0.78841   0.00009   0.00000   0.00535   0.00689  -0.78152
   Z34        2.23105  -0.00005   0.00000   0.00977   0.00998   2.24103
   X35       -2.74239  -0.00009   0.00000   0.00723   0.00671  -2.73568
   Y35       -2.64469   0.00009   0.00000   0.00156   0.00391  -2.64078
   Z35        4.56588  -0.00001   0.00000   0.00665   0.00750   4.57338
   X36       -4.77619  -0.00002   0.00000   0.00480   0.00440  -4.77179
   Y36       -4.56042   0.00004   0.00000   0.00439   0.00657  -4.55385
   Z36        4.44144  -0.00001   0.00000   0.00237   0.00377   4.44521
   X37       -0.17758   0.00011   0.00000   0.00599   0.00551  -0.17206
   Y37       -3.71930  -0.00005   0.00000  -0.00264  -0.00000  -3.71930
   Z37        4.99235   0.00002   0.00000   0.00431   0.00568   4.99803
   X38       -2.00759  -0.00005   0.00000  -0.02879  -0.02950  -2.03708
   Y38        5.12962  -0.00002   0.00000  -0.00610  -0.00529   5.12434
   Z38        0.04193  -0.00010   0.00000  -0.01862  -0.02041   0.02153
   X39       -0.65001  -0.00004   0.00000  -0.00063  -0.00116  -0.65117
   Y39        3.84094   0.00011   0.00000   0.01060   0.01085   3.85179
   Z39       -1.82275   0.00001   0.00000  -0.00945  -0.01072  -1.83348
   X40       -1.57305   0.00002   0.00000   0.02521   0.02482  -1.54823
   Y40        3.74022   0.00000   0.00000   0.01231   0.01165   3.75187
   Z40       -4.28734  -0.00006   0.00000  -0.01917  -0.02046  -4.30779
   X41       -3.87670   0.00004   0.00000   0.02485   0.02443  -3.85227
   Y41        4.85943   0.00004   0.00000   0.00009  -0.00092   4.85851
   Z41       -4.90779  -0.00011   0.00000  -0.03955  -0.04135  -4.94914
   X42       -5.24990   0.00004   0.00000  -0.00220  -0.00279  -5.25269
   Y42        6.11474  -0.00006   0.00000  -0.01478  -0.01522   6.09951
   Z42       -3.04316  -0.00021   0.00000  -0.04963  -0.05194  -3.09510
   X43       -4.30944  -0.00001   0.00000  -0.02941  -0.03014  -4.33958
   Y43        6.25101  -0.00006   0.00000  -0.01874  -0.01828   6.23273
   Z43       -0.58907  -0.00010   0.00000  -0.03884  -0.04114  -0.63021
   X44        1.07499  -0.00005   0.00000   0.00025  -0.00026   1.07473
   Y44        2.84657   0.00005   0.00000   0.01964   0.02016   2.86673
   Z44       -1.30669  -0.00003   0.00000   0.00452   0.00369  -1.30300
   X45       -0.48838   0.00014   0.00000   0.04618   0.04592  -0.44246
   Y45        2.76686   0.00004   0.00000   0.02317   0.02208   2.78894
   Z45       -5.73693  -0.00002   0.00000  -0.01079  -0.01169  -5.74861
   X46       -4.59729   0.00014   0.00000   0.04558   0.04527  -4.55202
   Y46        4.76126  -0.00002   0.00000   0.00177   0.00006   4.76132
   Z46       -6.82696  -0.00014   0.00000  -0.04741  -0.04921  -6.87617
   X47       -7.05463  -0.00002   0.00000  -0.00244  -0.00305  -7.05769
   Y47        6.98157  -0.00005   0.00000  -0.02363  -0.02434   6.95723
   Z47       -3.49569  -0.00023   0.00000  -0.06596  -0.06866  -3.56435
   X48       -5.38891  -0.00018   0.00000  -0.05115  -0.05202  -5.44093
   Y48        7.21807  -0.00005   0.00000  -0.03065  -0.02975   7.18832
   Z48        0.86956  -0.00015   0.00000  -0.04692  -0.04961   0.81995
   X49        0.49216  -0.00015   0.00000  -0.02058  -0.02136   0.47080
   Y49        3.19477  -0.00010   0.00000   0.01656   0.01867   3.21344
   Z49        3.37241  -0.00013   0.00000  -0.01022  -0.01121   3.36119
   X50       -0.49736   0.00018   0.00000   0.01649   0.01582  -0.48154
   Y50        1.65636   0.00027   0.00000   0.00018   0.00206   1.65843
   Z50        2.89189   0.00002   0.00000  -0.03147  -0.03197   2.85991
   X51        4.51174   0.00004   0.00000  -0.01104  -0.01163   4.50011
   Y51        0.38494  -0.00003   0.00000   0.00738   0.00949   0.39442
   Z51        2.67948   0.00002   0.00000   0.02510   0.02531   2.70479
   X52        3.90622  -0.00017   0.00000  -0.03228  -0.03271   3.87351
   Y52       -0.37951   0.00005   0.00000   0.01669   0.01804  -0.36147
   Z52        0.59107   0.00012   0.00000   0.02787   0.02830   0.61937
   X53        3.89327  -0.00007   0.00000  -0.00420  -0.00484   3.88843
   Y53       -0.75710   0.00006   0.00000   0.00692   0.00973  -0.74737
   Z53        4.81238   0.00014   0.00000   0.02686   0.02742   4.83980
   X54        2.50820  -0.00001   0.00000  -0.01354  -0.01409   2.49410
   Y54       -2.00761   0.00006   0.00000   0.01610   0.01874  -1.98887
   Z54        4.54216   0.00006   0.00000   0.03253   0.03345   4.57561
   X55        6.15119  -0.00000   0.00000   0.00485   0.00411   6.15530
   Y55        2.68305   0.00003   0.00000  -0.00270  -0.00035   2.68270
   Z55        3.10450   0.00004   0.00000   0.01924   0.01874   3.12324
   X56        5.38241   0.00006   0.00000   0.02167   0.02078   5.40319
   Y56        3.68790  -0.00000   0.00000  -0.00300  -0.00012   3.68777
   Z56        4.73830   0.00007   0.00000   0.02731   0.02643   4.76473
   X57        8.04831   0.00004   0.00000   0.00514   0.00441   8.05272
   Y57        2.02376  -0.00003   0.00000  -0.01422  -0.01159   2.01217
   Z57        3.63905   0.00002   0.00000   0.00425   0.00410   3.64314
   X58       -1.02007  -0.00029   0.00000  -0.05868  -0.05955  -1.07962
   Y58        5.26349  -0.00033   0.00000  -0.01053  -0.00874   5.25475
   Z58        2.72765  -0.00004   0.00000  -0.00730  -0.00908   2.71857
   X59       -2.63923  -0.00017   0.00000  -0.07618  -0.07713  -2.71636
   Y59        5.47448  -0.00024   0.00000  -0.05708  -0.05493   5.41955
   Z59        4.02419  -0.00012   0.00000  -0.02199  -0.02392   4.00027
   X60        0.15025  -0.00029   0.00000  -0.09760  -0.09858   0.05168
   Y60        6.96300   0.00025   0.00000   0.01324   0.01519   6.97819
   Z60        2.94979   0.00013   0.00000   0.02066   0.01835   2.96814
   X61       -3.31382   0.00007   0.00000   0.00876   0.00798  -3.30584
   Y61       -0.75083   0.00003   0.00000  -0.00391  -0.00064  -0.75147
   Z61        7.31101   0.00005   0.00000   0.01086   0.01103   7.32204
   X62       -1.87200  -0.00002   0.00000   0.01024   0.00938  -1.86262
   Y62        0.72726  -0.00005   0.00000  -0.00568  -0.00233   0.72493
   Z62        7.33989   0.00004   0.00000   0.01455   0.01429   7.35417
   X63       -5.19824   0.00002   0.00000   0.00972   0.00891  -5.18933
   Y63        0.07260   0.00001   0.00000  -0.00132   0.00178   0.07438
   Z63        7.14436   0.00005   0.00000   0.01241   0.01219   7.15655
   X64       -3.18177   0.00001   0.00000   0.00684   0.00604  -3.17573
   Y64       -1.94447  -0.00003   0.00000  -0.00789  -0.00404  -1.94852
   Z64        8.98652   0.00004   0.00000   0.00825   0.00884   8.99536
   X65        6.26937  -0.00005   0.00000  -0.00212  -0.00283   6.26654
   Y65        4.39327   0.00001   0.00000   0.00349   0.00505   4.39832
   Z65        0.79310   0.00006   0.00000   0.02347   0.02239   0.81549
   X66        6.94907  -0.00002   0.00000  -0.01708  -0.01764   6.93143
   Y66        3.30878   0.00001   0.00000   0.00546   0.00649   3.31526
   Z66       -0.83726   0.00004   0.00000   0.01587   0.01520  -0.82207
   X67        4.34104   0.00001   0.00000  -0.00233  -0.00305   4.33799
   Y67        4.98873   0.00005   0.00000   0.01362   0.01491   5.00364
   Z67        0.33117   0.00012   0.00000   0.03770   0.03631   0.36748
   X68        7.94326   0.00001   0.00000   0.01073   0.00986   7.95312
   Y68        6.70004  -0.00001   0.00000  -0.00510  -0.00330   6.69674
   Z68        1.22632   0.00007   0.00000   0.02012   0.01834   1.24465
   X69        8.00826   0.00001   0.00000   0.00368   0.00284   8.01110
   Y69        7.90813   0.00004   0.00000   0.00122   0.00245   7.91057
   Z69       -0.44955   0.00004   0.00000   0.02427   0.02207  -0.42748
   X70        7.23357   0.00007   0.00000   0.02678   0.02577   7.25934
   Y70        7.83940  -0.00002   0.00000  -0.00818  -0.00588   7.83352
   Z70        2.80116   0.00009   0.00000   0.02962   0.02741   2.82857
   X71        9.88387   0.00007   0.00000   0.01178   0.01092   9.89480
   Y71        6.14210  -0.00005   0.00000  -0.01499  -0.01293   6.12917
   Z71        1.68305   0.00000   0.00000   0.00398   0.00251   1.68555
   X72        9.28812   0.00003   0.00000   0.00585   0.00577   9.29388
   Y72       -4.90114  -0.00003   0.00000  -0.02458  -0.02351  -4.92465
   Z72       -1.05723  -0.00011   0.00000  -0.03458  -0.03227  -1.08950
   X73       10.46990   0.00004   0.00000   0.01413   0.01396  10.48385
   Y73       -4.90507  -0.00012   0.00000  -0.03931  -0.03760  -4.94266
   Z73        0.63397  -0.00013   0.00000  -0.04043  -0.03805   0.59591
   X74       10.10516  -0.00004   0.00000  -0.00583  -0.00576  10.09940
   Y74       -6.22028  -0.00006   0.00000  -0.01910  -0.01846  -6.23874
   Z74       -2.42616  -0.00015   0.00000  -0.04683  -0.04402  -2.47019
   X75        8.98918   0.00003   0.00000   0.00908   0.00892   8.99810
   Y75       -2.27444  -0.00008   0.00000  -0.01646  -0.01581  -2.29025
   Z75       -2.23094   0.00000   0.00000  -0.01696  -0.01558  -2.24652
   X76        8.65364   0.00004   0.00000   0.01906   0.01874   8.67238
   Y76       -0.87874  -0.00010   0.00000  -0.02481  -0.02366  -0.90240
   Z76       -0.74285  -0.00005   0.00000  -0.00703  -0.00615  -0.74900
   X77       10.62139   0.00002   0.00000   0.00619   0.00605  10.62745
   Y77       -1.68112  -0.00003   0.00000  -0.01423  -0.01387  -1.69499
   Z77       -3.34516  -0.00007   0.00000  -0.02007  -0.01880  -3.36396
         Item               Value     Threshold  Converged?
 Maximum Force            0.000330     0.000450     YES
 RMS     Force            0.000083     0.000300     YES
 Maximum Displacement     0.098576     0.001800     NO 
 RMS     Displacement     0.019738     0.001200     NO 
 Predicted change in Energy=-2.765198D-04
 GradGradGradGradGradGradGradGradGradGradGradGradGradGradGradGradGradGrad

 Leave Link  103 at Fri Feb  8 01:42:35 2019, MaxMem=   104857600 cpu:              19.5 elap:               0.9
 (Enter /home/xinyan/g16/l9999.exe)
 1\1\GINC-TSE4\Force\RM062X\6-31G(d)\C27H41N3O5S1\STEVETSE\08-Feb-2019\
 0\\#p M062X/6-31G* em=gd3 force int=ultrafine\\Title\\0,1\C,-4.94268,0
 .25274,-0.23262\C,-5.08126,-1.00023,-1.10275\C,-3.72973,-1.39474,-1.71
 021\C,-2.73513,-1.63159,-0.5786\C,-2.53451,-0.34448,0.26977\C,-3.89091
 ,0.06356,0.86456\H,-3.8213,-2.29106,-2.33432\H,-5.45859,-1.83198,-0.49
 338\H,-5.8094,-0.83416,-1.90344\H,-4.64215,1.09679,-0.86924\H,-5.91131
 ,0.51191,0.20809\H,-3.10801,-2.42645,0.07257\H,-2.26211,0.43715,-0.454
 58\H,-4.21634,-0.70295,1.57935\H,-3.7453,0.9992,1.41838\H,-3.38983,-0.
 56968,-2.35151\N,-1.40282,-2.08707,-1.03842\C,-0.74189,-1.41916,-2.011
 41\C,-0.70873,-2.92825,-0.23615\C,0.60351,-1.55322,-2.20116\H,-1.33658
 ,-0.74824,-2.61791\C,0.63862,-3.11151,-0.36241\H,-1.27928,-3.40749,0.5
 5213\C,1.36868,-2.35098,-1.30656\H,1.07612,-0.99731,-3.00017\H,1.13034
 ,-3.75689,0.35192\N,2.70796,-2.37016,-1.3386\C,3.47334,-2.98563,-0.247
 96\H,3.32055,-4.06887,-0.23042\H,3.13759,-2.56097,0.70856\C,3.48605,-1
 .32816,-2.02521\H,3.70296,-1.6353,-3.05579\H,2.92326,-0.39108,-2.03022
 \N,-1.40961,-0.41721,1.18062\S,-1.45121,-1.39951,2.41616\O,-2.52745,-2
 .41327,2.35031\O,-0.09397,-1.96817,2.64184\C,-1.06237,2.71448,0.02219\
 C,-0.34397,2.03254,-0.96456\C,-0.83242,1.97924,-2.26876\C,-2.05146,2.5
 715,-2.59709\C,-2.77813,3.23578,-1.61037\C,-2.28046,3.30789,-0.31172\H
 ,0.56886,1.50634,-0.69147\H,-0.25844,1.46416,-3.03585\H,-2.43278,2.519
 55,-3.61267\H,-3.73315,3.69449,-1.84984\H,-2.85169,3.81964,0.46015\O,0
 .26044,1.6906,1.7846\H,-0.26319,0.87651,1.53032\C,2.38751,0.2037,1.417
 92\O,2.06708,-0.20083,0.31278\O,2.06023,-0.40064,2.5466\H,1.32728,-1.0
 6238,2.40361\C,3.25507,1.41981,1.64283\H,2.84825,1.95155,2.5074\H,4.25
 898,1.07093,1.9257\C,-0.5398,2.78532,1.44341\H,-1.39662,2.89697,2.1295
 1\H,0.07951,3.68466,1.56096\C,-1.7536,-0.39732,3.86882\H,-0.99062,0.38
 485,3.8841\H,-2.75079,0.03842,3.78063\H,-1.68372,-1.02897,4.75546\C,3.
 31761,2.32482,0.41969\H,3.67729,1.75093,-0.44306\H,2.29718,2.63992,0.1
 7525\C,4.20339,3.54551,0.64894\H,4.23779,4.1848,-0.23789\H,3.82784,4.1
 4843,1.48231\H,5.23032,3.25026,0.89063\C,4.91506,-2.59357,-0.55946\H,5
 .54043,-2.59565,0.33548\H,5.34742,-3.29163,-1.28387\C,4.75687,-1.20358
 ,-1.18056\H,4.57931,-0.46501,-0.3931\H,5.6206,-0.88961,-1.77018\\Versi
 on=ES64L-G16RevA.03\State=1-A\HF=-1991.3905446\RMSD=4.708e-09\RMSF=8.2
 64e-05\Dipole=0.5966554,-0.1840941,-2.5527105\Quadrupole=10.675403,-5.
 6895516,-4.9858513,-10.7009129,-0.6566537,9.1737451\PG=C01 [X(C27H41N3
 O5S1)]\\@


 UNLESS WE CHANGE DIRECTIONS, WE WILL WIND UP WHERE WE ARE HEADED.
     -- CONFUCIUS
 Job cpu time:       0 days  1 hours 17 minutes 37.9 seconds.
 Elapsed time:       0 days  0 hours  3 minutes 15.1 seconds.
 File lengths (MBytes):  RWF=    216 Int=      0 D2E=      0 Chk=     25 Scr=      1
 Normal termination of Gaussian 16 at Fri Feb  8 01:42:35 2019.
