 Entering Gaussian System, Link 0=g16
 Input=C27N3H41SO5-264.gjf
 Output=C27N3H41SO5-264.log
 Initial command:
 /home/xinyan/g16/l1.exe "/local/home/tmp/Gau-7856.inp" -scrdir="/local/home/tmp/"
 Entering Link 1 = /home/xinyan/g16/l1.exe PID=      7857.
  
 Copyright (c) 1988,1990,1992,1993,1995,1998,2003,2009,2016,
            Gaussian, Inc.  All Rights Reserved.
  
 This is part of the Gaussian(R) 16 program.  It is based on
 the Gaussian(R) 09 system (copyright 2009, Gaussian, Inc.),
 the Gaussian(R) 03 system (copyright 2003, Gaussian, Inc.),
 the Gaussian(R) 98 system (copyright 1998, Gaussian, Inc.),
 the Gaussian(R) 94 system (copyright 1995, Gaussian, Inc.),
 the Gaussian 92(TM) system (copyright 1992, Gaussian, Inc.),
 the Gaussian 90(TM) system (copyright 1990, Gaussian, Inc.),
 the Gaussian 88(TM) system (copyright 1988, Gaussian, Inc.),
 the Gaussian 86(TM) system (copyright 1986, Carnegie Mellon
 University), and the Gaussian 82(TM) system (copyright 1983,
 Carnegie Mellon University). Gaussian is a federally registered
 trademark of Gaussian, Inc.
  
 This software contains proprietary and confidential information,
 including trade secrets, belonging to Gaussian, Inc.
  
 This software is provided under written license and may be
 used, copied, transmitted, or stored only in accord with that
 written license.
  
 The following legend is applicable only to US Government
 contracts under FAR:
  
                    RESTRICTED RIGHTS LEGEND
  
 Use, reproduction and disclosure by the US Government is
 subject to restrictions as set forth in subparagraphs (a)
 and (c) of the Commercial Computer Software - Restricted
 Rights clause in FAR 52.227-19.
  
 Gaussian, Inc.
 340 Quinnipiac St., Bldg. 40, Wallingford CT 06492
  
  
 ---------------------------------------------------------------
 Warning -- This program may not be used in any manner that
 competes with the business of Gaussian, Inc. or will provide
 assistance to any competitor of Gaussian, Inc.  The licensee
 of this program is prohibited from giving any competitor of
 Gaussian, Inc. access to this program.  By using this program,
 the user acknowledges that Gaussian, Inc. is engaged in the
 business of creating and licensing software in the field of
 computational chemistry and represents and warrants to the
 licensee that it is not a competitor of Gaussian, Inc. and that
 it will not use this program in any manner prohibited above.
 ---------------------------------------------------------------
  

 Cite this work as:
 Gaussian 16, Revision A.03,
 M. J. Frisch, G. W. Trucks, H. B. Schlegel, G. E. Scuseria, 
 M. A. Robb, J. R. Cheeseman, G. Scalmani, V. Barone, 
 G. A. Petersson, H. Nakatsuji, X. Li, M. Caricato, A. V. Marenich, 
 J. Bloino, B. G. Janesko, R. Gomperts, B. Mennucci, H. P. Hratchian, 
 J. V. Ortiz, A. F. Izmaylov, J. L. Sonnenberg, D. Williams-Young, 
 F. Ding, F. Lipparini, F. Egidi, J. Goings, B. Peng, A. Petrone, 
 T. Henderson, D. Ranasinghe, V. G. Zakrzewski, J. Gao, N. Rega, 
 G. Zheng, W. Liang, M. Hada, M. Ehara, K. Toyota, R. Fukuda, 
 J. Hasegawa, M. Ishida, T. Nakajima, Y. Honda, O. Kitao, H. Nakai, 
 T. Vreven, K. Throssell, J. A. Montgomery, Jr., J. E. Peralta, 
 F. Ogliaro, M. J. Bearpark, J. J. Heyd, E. N. Brothers, K. N. Kudin, 
 V. N. Staroverov, T. A. Keith, R. Kobayashi, J. Normand, 
 K. Raghavachari, A. P. Rendell, J. C. Burant, S. S. Iyengar, 
 J. Tomasi, M. Cossi, J. M. Millam, M. Klene, C. Adamo, R. Cammi, 
 J. W. Ochterski, R. L. Martin, K. Morokuma, O. Farkas, 
 J. B. Foresman, and D. J. Fox, Gaussian, Inc., Wallingford CT, 2016.
 
 ******************************************
 Gaussian 16:  ES64L-G16RevA.03 25-Dec-2016
                 7-Feb-2019 
 ******************************************
 %nproc=24
 Will use up to   24 processors via shared memory.
 ------------------------------------------
 #p M062X/6-31G* em=gd3 force int=ultrafine
 ------------------------------------------
 1/10=7,30=1,38=1/1,3;
 2/12=2,17=6,18=5,40=1/2;
 3/5=1,6=6,7=1,11=2,25=1,30=1,71=1,74=-55,75=-5,124=31/1,2,3;
 4//1;
 5/5=2,38=5/2;
 6/7=2,8=2,9=2,10=2,28=1/1;
 7/29=1/1,2,3,16;
 1/10=7,30=1/3;
 99//99;
 Leave Link    1 at Thu Feb  7 23:11:23 2019, MaxMem=           0 cpu:               2.5 elap:               0.1
 (Enter /home/xinyan/g16/l101.exe)
 -----
 Title
 -----
 Symbolic Z-matrix:
 Charge =  0 Multiplicity = 1
 C                    -4.95124   0.23906  -0.30491 
 C                    -5.10203  -1.01899  -1.16543 
 C                    -3.7518   -1.44038  -1.75803 
 C                    -2.76198  -1.67109  -0.62041 
 C                    -2.55799  -0.37919   0.22217 
 C                    -3.91547   0.04033   0.80605 
 H                    -3.85205  -2.34484  -2.36904 
 H                    -5.4994   -1.83871  -0.55266 
 H                    -5.81945  -0.84816  -1.97495 
 H                    -4.62645   1.07128  -0.94539 
 H                    -5.92031   0.52127   0.12024 
 H                    -3.13899  -2.46059   0.03589 
 H                    -2.27801   0.39871  -0.50421 
 H                    -4.2563   -0.72209   1.51798 
 H                    -3.76633   0.97508   1.35963 
 H                    -3.40007  -0.63006  -2.41133 
 N                    -1.42779  -2.13166  -1.07152 
 C                    -0.76119  -1.47074  -2.04612 
 C                    -0.73208  -2.94982  -0.24688 
 C                     0.58884  -1.58699  -2.21364 
 H                    -1.35639  -0.82013  -2.6738 
 C                     0.6199   -3.1131   -0.3489 
 H                    -1.30632  -3.42636   0.54043 
 C                     1.35355  -2.35443  -1.29161 
 H                     1.06424  -1.03584  -3.0143 
 H                     1.1091   -3.73583   0.38684 
 N                     2.69378  -2.34684  -1.29538 
 C                     3.4429   -2.90981  -0.16461 
 H                     3.31693  -3.99544  -0.11835 
 H                     3.06928  -2.46624   0.76893 
 C                     3.46458  -1.30228  -1.98729 
 H                     3.71153  -1.62695  -3.00539 
 H                     2.8816   -0.37832  -2.02675 
 N                    -1.43477  -0.45472   1.13142 
 S                    -1.46506  -1.41184   2.38791 
 O                    -2.54786  -2.4199    2.35268 
 O                    -0.10518  -1.97688   2.60528 
 C                    -0.929     2.6815    0.08678 
 C                    -0.29903   1.98728  -0.95301 
 C                    -0.87692   1.96243  -2.22034 
 C                    -2.10187   2.58798  -2.45695 
 C                    -2.74702   3.24848  -1.41426 
 C                    -2.15703   3.29543  -0.15317 
 H                     0.61811   1.43596  -0.75178 
 H                    -0.36926   1.44657  -3.03244 
 H                    -2.55166   2.56108  -3.44504 
 H                    -3.70816   3.72668  -1.57835 
 H                    -2.65953   3.80721   0.66446 
 O                     0.25872   1.53444   1.86615 
 H                    -0.33671   0.79799   1.5283 
 C                     2.36558   0.21085   1.3671 
 O                     2.00348  -0.16057   0.26443 
 O                     2.13072  -0.4634    2.48241 
 H                     1.37331  -1.09776   2.35459 
 C                     3.18884   1.45638   1.59862 
 H                     2.70933   2.00073   2.41808 
 H                     4.18093   1.15124   1.96003 
 C                    -0.302     2.7493    1.46309 
 H                    -1.05716   3.1099    2.18074 
 H                     0.50954   3.49254   1.46001 
 C                    -1.73657  -0.3711    3.81965 
 H                    -0.95639   0.39393   3.805 
 H                    -2.72453   0.08472   3.72986 
 H                    -1.67018  -0.98184   4.72094 
 C                     3.30297   2.32467   0.35147 
 H                     3.6922    1.72433  -0.47969 
 H                     2.29811   2.63951   0.04773 
 C                     4.1885    3.54703   0.5736 
 H                     4.27502   4.14625  -0.33744 
 H                     3.78064   4.19003   1.36061 
 H                     5.19838   3.25118   0.87806 
 C                     4.88347  -2.49104  -0.44483 
 H                     5.47777  -2.44461   0.46995 
 H                     5.35747  -3.20214  -1.12896 
 C                     4.71383  -1.12737  -1.11878 
 H                     4.50932  -0.36552  -0.36149 
 H                     5.58505  -0.81783  -1.69968 
 
 ITRead=  0  0  0  0  0  0  0  0  0  0  0  0  0  0  0  0  0  0  0  0
 ITRead=  0  0  0  0  0  0  0  0  0  0  0  0  0  0  0  0  0  0  0  0
 ITRead=  0  0  0  0  0  0  0  0  0  0  0  0  0  0  0  0  0  0  0  0
 ITRead=  0  0  0  0  0  0  0  0  0  0  0  0  0  0  0  0  0
 MicOpt= -1 -1 -1 -1 -1 -1 -1 -1 -1 -1 -1 -1 -1 -1 -1 -1 -1 -1 -1 -1
 MicOpt= -1 -1 -1 -1 -1 -1 -1 -1 -1 -1 -1 -1 -1 -1 -1 -1 -1 -1 -1 -1
 MicOpt= -1 -1 -1 -1 -1 -1 -1 -1 -1 -1 -1 -1 -1 -1 -1 -1 -1 -1 -1 -1
 MicOpt= -1 -1 -1 -1 -1 -1 -1 -1 -1 -1 -1 -1 -1 -1 -1 -1 -1
 NAtoms=     77 NQM=       77 NQMF=       0 NMMI=      0 NMMIF=      0
                NMic=       0 NMicF=      0.
                    Isotopes and Nuclear Properties:
 (Nuclear quadrupole moments (NQMom) in fm**2, nuclear magnetic moments (NMagM)
  in nuclear magnetons)

  Atom         1           2           3           4           5           6           7           8           9          10
 IAtWgt=          12          12          12          12          12          12           1           1           1           1
 AtmWgt=  12.0000000  12.0000000  12.0000000  12.0000000  12.0000000  12.0000000   1.0078250   1.0078250   1.0078250   1.0078250
 NucSpn=           0           0           0           0           0           0           1           1           1           1
 AtZEff=  -0.0000000  -0.0000000  -0.0000000  -0.0000000  -0.0000000  -0.0000000  -0.0000000  -0.0000000  -0.0000000  -0.0000000
 NQMom=    0.0000000   0.0000000   0.0000000   0.0000000   0.0000000   0.0000000   0.0000000   0.0000000   0.0000000   0.0000000
 NMagM=    0.0000000   0.0000000   0.0000000   0.0000000   0.0000000   0.0000000   2.7928460   2.7928460   2.7928460   2.7928460
 AtZNuc=   6.0000000   6.0000000   6.0000000   6.0000000   6.0000000   6.0000000   1.0000000   1.0000000   1.0000000   1.0000000

  Atom        11          12          13          14          15          16          17          18          19          20
 IAtWgt=           1           1           1           1           1           1          14          12          12          12
 AtmWgt=   1.0078250   1.0078250   1.0078250   1.0078250   1.0078250   1.0078250  14.0030740  12.0000000  12.0000000  12.0000000
 NucSpn=           1           1           1           1           1           1           2           0           0           0
 AtZEff=  -0.0000000  -0.0000000  -0.0000000  -0.0000000  -0.0000000  -0.0000000  -0.0000000  -0.0000000  -0.0000000  -0.0000000
 NQMom=    0.0000000   0.0000000   0.0000000   0.0000000   0.0000000   0.0000000   2.0440000   0.0000000   0.0000000   0.0000000
 NMagM=    2.7928460   2.7928460   2.7928460   2.7928460   2.7928460   2.7928460   0.4037610   0.0000000   0.0000000   0.0000000
 AtZNuc=   1.0000000   1.0000000   1.0000000   1.0000000   1.0000000   1.0000000   7.0000000   6.0000000   6.0000000   6.0000000

  Atom        21          22          23          24          25          26          27          28          29          30
 IAtWgt=           1          12           1          12           1           1          14          12           1           1
 AtmWgt=   1.0078250  12.0000000   1.0078250  12.0000000   1.0078250   1.0078250  14.0030740  12.0000000   1.0078250   1.0078250
 NucSpn=           1           0           1           0           1           1           2           0           1           1
 AtZEff=  -0.0000000  -0.0000000  -0.0000000  -0.0000000  -0.0000000  -0.0000000  -0.0000000  -0.0000000  -0.0000000  -0.0000000
 NQMom=    0.0000000   0.0000000   0.0000000   0.0000000   0.0000000   0.0000000   2.0440000   0.0000000   0.0000000   0.0000000
 NMagM=    2.7928460   0.0000000   2.7928460   0.0000000   2.7928460   2.7928460   0.4037610   0.0000000   2.7928460   2.7928460
 AtZNuc=   1.0000000   6.0000000   1.0000000   6.0000000   1.0000000   1.0000000   7.0000000   6.0000000   1.0000000   1.0000000

  Atom        31          32          33          34          35          36          37          38          39          40
 IAtWgt=          12           1           1          14          32          16          16          12          12          12
 AtmWgt=  12.0000000   1.0078250   1.0078250  14.0030740  31.9720718  15.9949146  15.9949146  12.0000000  12.0000000  12.0000000
 NucSpn=           0           1           1           2           0           0           0           0           0           0
 AtZEff=  -0.0000000  -0.0000000  -0.0000000  -0.0000000  -0.0000000  -0.0000000  -0.0000000  -0.0000000  -0.0000000  -0.0000000
 NQMom=    0.0000000   0.0000000   0.0000000   2.0440000   0.0000000   0.0000000   0.0000000   0.0000000   0.0000000   0.0000000
 NMagM=    0.0000000   2.7928460   2.7928460   0.4037610   0.0000000   0.0000000   0.0000000   0.0000000   0.0000000   0.0000000
 AtZNuc=   6.0000000   1.0000000   1.0000000   7.0000000  16.0000000   8.0000000   8.0000000   6.0000000   6.0000000   6.0000000

  Atom        41          42          43          44          45          46          47          48          49          50
 IAtWgt=          12          12          12           1           1           1           1           1          16           1
 AtmWgt=  12.0000000  12.0000000  12.0000000   1.0078250   1.0078250   1.0078250   1.0078250   1.0078250  15.9949146   1.0078250
 NucSpn=           0           0           0           1           1           1           1           1           0           1
 AtZEff=  -0.0000000  -0.0000000  -0.0000000  -0.0000000  -0.0000000  -0.0000000  -0.0000000  -0.0000000  -0.0000000  -0.0000000
 NQMom=    0.0000000   0.0000000   0.0000000   0.0000000   0.0000000   0.0000000   0.0000000   0.0000000   0.0000000   0.0000000
 NMagM=    0.0000000   0.0000000   0.0000000   2.7928460   2.7928460   2.7928460   2.7928460   2.7928460   0.0000000   2.7928460
 AtZNuc=   6.0000000   6.0000000   6.0000000   1.0000000   1.0000000   1.0000000   1.0000000   1.0000000   8.0000000   1.0000000

  Atom        51          52          53          54          55          56          57          58          59          60
 IAtWgt=          12          16          16           1          12           1           1          12           1           1
 AtmWgt=  12.0000000  15.9949146  15.9949146   1.0078250  12.0000000   1.0078250   1.0078250  12.0000000   1.0078250   1.0078250
 NucSpn=           0           0           0           1           0           1           1           0           1           1
 AtZEff=  -0.0000000  -0.0000000  -0.0000000  -0.0000000  -0.0000000  -0.0000000  -0.0000000  -0.0000000  -0.0000000  -0.0000000
 NQMom=    0.0000000   0.0000000   0.0000000   0.0000000   0.0000000   0.0000000   0.0000000   0.0000000   0.0000000   0.0000000
 NMagM=    0.0000000   0.0000000   0.0000000   2.7928460   0.0000000   2.7928460   2.7928460   0.0000000   2.7928460   2.7928460
 AtZNuc=   6.0000000   8.0000000   8.0000000   1.0000000   6.0000000   1.0000000   1.0000000   6.0000000   1.0000000   1.0000000

  Atom        61          62          63          64          65          66          67          68          69          70
 IAtWgt=          12           1           1           1          12           1           1          12           1           1
 AtmWgt=  12.0000000   1.0078250   1.0078250   1.0078250  12.0000000   1.0078250   1.0078250  12.0000000   1.0078250   1.0078250
 NucSpn=           0           1           1           1           0           1           1           0           1           1
 AtZEff=  -0.0000000  -0.0000000  -0.0000000  -0.0000000  -0.0000000  -0.0000000  -0.0000000  -0.0000000  -0.0000000  -0.0000000
 NQMom=    0.0000000   0.0000000   0.0000000   0.0000000   0.0000000   0.0000000   0.0000000   0.0000000   0.0000000   0.0000000
 NMagM=    0.0000000   2.7928460   2.7928460   2.7928460   0.0000000   2.7928460   2.7928460   0.0000000   2.7928460   2.7928460
 AtZNuc=   6.0000000   1.0000000   1.0000000   1.0000000   6.0000000   1.0000000   1.0000000   6.0000000   1.0000000   1.0000000

  Atom        71          72          73          74          75          76          77
 IAtWgt=           1          12           1           1          12           1           1
 AtmWgt=   1.0078250  12.0000000   1.0078250   1.0078250  12.0000000   1.0078250   1.0078250
 NucSpn=           1           0           1           1           0           1           1
 AtZEff=  -0.0000000  -0.0000000  -0.0000000  -0.0000000  -0.0000000  -0.0000000  -0.0000000
 NQMom=    0.0000000   0.0000000   0.0000000   0.0000000   0.0000000   0.0000000   0.0000000
 NMagM=    2.7928460   0.0000000   2.7928460   2.7928460   0.0000000   2.7928460   2.7928460
 AtZNuc=   1.0000000   6.0000000   1.0000000   1.0000000   6.0000000   1.0000000   1.0000000
 Leave Link  101 at Thu Feb  7 23:11:24 2019, MaxMem=   104857600 cpu:               5.8 elap:               0.3
 (Enter /home/xinyan/g16/l103.exe)

 GradGradGradGradGradGradGradGradGradGradGradGradGradGradGradGradGradGrad
 Berny optimization.
 Initialization pass.
 Trust Radius=3.00D-01 FncErr=1.00D-07 GrdErr=1.00D-07 EigMax=2.50D+02 EigMin=1.00D-04
 Number of steps in this run=      2 maximum allowed number of steps=      2.
 GradGradGradGradGradGradGradGradGradGradGradGradGradGradGradGradGradGrad

 Leave Link  103 at Thu Feb  7 23:11:24 2019, MaxMem=   104857600 cpu:               1.6 elap:               0.1
 (Enter /home/xinyan/g16/l202.exe)
 Stoichiometry    C27H41N3O5S
 Framework group  C1[X(C27H41N3O5S)]
 Deg. of freedom   225
 Full point group                 C1      NOp   1
 Largest Abelian subgroup         C1      NOp   1
 Largest concise Abelian subgroup C1      NOp   1
                         Standard orientation:                         
 ---------------------------------------------------------------------
 Center     Atomic      Atomic             Coordinates (Angstroms)
 Number     Number       Type             X           Y           Z
 ---------------------------------------------------------------------
      1          6           0       -4.869797    0.163278   -0.445180
      2          6           0       -4.947784   -1.128953   -1.263703
      3          6           0       -3.576718   -1.487945   -1.849510
      4          6           0       -2.571029   -1.621786   -0.710288
      5          6           0       -2.442028   -0.293188    0.088926
      6          6           0       -3.820248    0.063220    0.666116
      7          1           0       -3.624616   -2.416241   -2.430374
      8          1           0       -5.293232   -1.950536   -0.622612
      9          1           0       -5.676872   -1.027851   -2.074509
     10          1           0       -4.597640    0.992086   -1.113985
     11          1           0       -5.852609    0.400746   -0.024251
     12          1           0       -2.897820   -2.410581   -0.026778
     13          1           0       -2.211633    0.475943   -0.663736
     14          1           0       -4.112361   -0.694578    1.404158
     15          1           0       -3.725558    1.022786    1.188341
     16          1           0       -3.276400   -0.679793   -2.530562
     17          7           0       -1.213150   -2.016209   -1.153328
     18          6           0       -0.590653   -1.348763   -2.152342
     19          6           0       -0.466873   -2.763941   -0.306336
     20          6           0        0.763348   -1.389462   -2.323176
     21          1           0       -1.225894   -0.755751   -2.797589
     22          6           0        0.892114   -2.849307   -0.410193
     23          1           0       -1.008860   -3.248024    0.499029
     24          6           0        1.575787   -2.079287   -1.380855
     25          1           0        1.202156   -0.837290   -3.143774
     26          1           0        1.420239   -3.417317    0.342716
     27          7           0        2.913131   -1.991676   -1.391985
     28          6           0        3.698452   -2.471625   -0.247574
     29          1           0        3.637951   -3.560757   -0.165520
     30          1           0        3.302050   -2.020964    0.673085
     31          6           0        3.617590   -0.926023   -2.121436
     32          1           0        3.880138   -1.268396   -3.129787
     33          1           0        2.980135   -0.040367   -2.187695
     34          7           0       -1.313251   -0.271684    0.994168
     35         16           0       -1.281881   -1.187383    2.281131
     36          8           0       -2.302409   -2.259014    2.284309
     37          8           0        0.110152   -1.662678    2.509458
     38          6           0       -0.999931    2.853403   -0.154139
     39          6           0       -0.332972    2.164540   -1.174237
     40          6           0       -0.912588    2.063820   -2.437012
     41          6           0       -2.173627    2.606927   -2.687244
     42          6           0       -2.853707    3.261336   -1.663075
     43          6           0       -2.263358    3.384624   -0.407317
     44          1           0        0.616243    1.675925   -0.960135
     45          1           0       -0.377647    1.553018   -3.234668
     46          1           0       -2.624314    2.520938   -3.671543
     47          1           0       -3.842334    3.675581   -1.837456
     48          1           0       -2.792886    3.891845    0.395970
     49          8           0        0.260396    1.838123    1.655105
     50          1           0       -0.290942    1.056745    1.344443
     51          6           0        2.441131    0.627337    1.187992
     52          8           0        2.098246    0.199134    0.099864
     53          8           0        2.250866   -0.022992    2.325779
     54          1           0        1.532425   -0.705352    2.222589
     55          6           0        3.189010    1.926770    1.374688
     56          1           0        2.680484    2.467919    2.178628
     57          1           0        4.198818    1.693473    1.740515
     58          6           0       -0.373501    3.003467    1.215905
     59          1           0       -1.146506    3.341484    1.925503
     60          1           0        0.392005    3.793419    1.184453
     61          6           0       -1.610485   -0.118572    3.679845
     62          1           0       -0.877628    0.690866    3.636291
     63          1           0       -2.624291    0.274166    3.580591
     64          1           0       -1.504569   -0.694506    4.600072
     65          6           0        3.246686    2.759164    0.099490
     66          1           0        3.668412    2.156372   -0.713852
     67          1           0        2.223742    3.003256   -0.208945
     68          6           0        4.058080    4.038898    0.277221
     69          1           0        4.105457    4.612166   -0.653189
     70          1           0        3.615051    4.681695    1.045154
     71          1           0        5.084898    3.814075    0.585734
     72          6           0        5.110374   -1.976811   -0.548851
     73          1           0        5.703892   -1.865086    0.360777
     74          1           0        5.623852   -2.680236   -1.212106
     75          6           0        4.857019   -0.648453   -1.265690
     76          1           0        4.609748    0.124111   -0.532389
     77          1           0        5.706156   -0.306482   -1.860926
 ---------------------------------------------------------------------
 Rotational constants (GHZ):           0.1450979           0.0971355           0.0866981
 Leave Link  202 at Thu Feb  7 23:11:24 2019, MaxMem=   104857600 cpu:               2.5 elap:               0.1
 (Enter /home/xinyan/g16/l301.exe)
 Standard basis: 6-31G(d) (6D, 7F)
 Ernie: Thresh=  0.10000D-02 Tol=  0.10000D-05 Strict=F.
 There are   626 symmetry adapted cartesian basis functions of A   symmetry.
 There are   626 symmetry adapted basis functions of A   symmetry.
   626 basis functions,  1196 primitive gaussians,   626 cartesian basis functions
   140 alpha electrons      140 beta electrons
       nuclear repulsion energy      4898.5975826742 Hartrees.
 IExCor= 4336 DFT=T Ex+Corr=M062X ExCW=0 ScaHFX=  0.540000
 ScaDFX=  1.000000  1.000000  1.000000  1.000000 ScalE2=  1.000000  1.000000
 IRadAn=      5 IRanWt=     -1 IRanGd=            0 ICorTp=0 IEmpDi=131
 NAtoms=   77 NActive=   77 NUniq=   77 SFac= 1.00D+00 NAtFMM=   60 NAOKFM=T Big=T
 Integral buffers will be    131072 words long.
 Raffenetti 2 integral format.
 Two-electron integral symmetry is turned on.
 R6Disp:  Grimme-D3 Dispersion energy=       -0.0106573963 Hartrees.
 Nuclear repulsion after empirical dispersion term =     4898.5869252779 Hartrees.
 Leave Link  301 at Thu Feb  7 23:11:24 2019, MaxMem=   104857600 cpu:               3.0 elap:               0.2
 (Enter /home/xinyan/g16/l302.exe)
 NPDir=0 NMtPBC=     1 NCelOv=     1 NCel=       1 NClECP=     1 NCelD=      1
         NCelK=      1 NCelE2=     1 NClLst=     1 CellRange=     0.0.
 One-electron integrals computed using PRISM.
 One-electron integral symmetry used in STVInt
 PrsmSu:  requested number of processors reduced to:  23 ShMem   1 Linda.
 NBasis=   626 RedAO= T EigKep=  4.35D-04  NBF=   626
 NBsUse=   626 1.00D-06 EigRej= -1.00D+00 NBFU=   626
 Precomputing XC quadrature grid using
 IXCGrd= 4 IRadAn=           5 IRanWt=          -1 IRanGd=           0 AccXCQ= 0.00D+00.
 Generated NRdTot=       0 NPtTot=           0 NUsed=           0 NTot=          32
 NSgBfM=   615   611   614   614   615 MxSgAt=    77 MxSgA2=    77.
 Leave Link  302 at Thu Feb  7 23:11:28 2019, MaxMem=   104857600 cpu:              91.2 elap:               4.0
 (Enter /home/xinyan/g16/l303.exe)
 DipDrv:  MaxL=1.
 Leave Link  303 at Thu Feb  7 23:11:28 2019, MaxMem=   104857600 cpu:               6.2 elap:               0.3
 (Enter /home/xinyan/g16/l401.exe)
 ExpMin= 1.17D-01 ExpMax= 2.19D+04 ExpMxC= 3.30D+03 IAcc=3 IRadAn=         5 AccDes= 0.00D+00
 Harris functional with IExCor= 1009 and IRadAn=       5 diagonalized for initial guess.
 HarFok:  IExCor= 1009 AccDes= 0.00D+00 IRadAn=         5 IDoV= 1 UseB2=F ITyADJ=14
 ICtDFT=  3500011 ScaDFX=  1.000000  1.000000  1.000000  1.000000
 FoFCou: FMM=F IPFlag=           0 FMFlag=      100000 FMFlg1=        2001
         NFxFlg=           0 DoJE=T BraDBF=F KetDBF=T FulRan=T
         wScrn=  0.000000 ICntrl=       500 IOpCl=  0 I1Cent=   200000004 NGrid=           0
         NMat0=    1 NMatS0=      1 NMatT0=    0 NMatD0=    1 NMtDS0=    0 NMtDT0=    0
 Petite list used in FoFCou.
 Harris En= -1990.54842474641    
 JPrj=0 DoOrth=F DoCkMO=F.
 Leave Link  401 at Thu Feb  7 23:11:33 2019, MaxMem=   104857600 cpu:              97.9 elap:               4.1
 (Enter /home/xinyan/g16/l502.exe)
 Integral symmetry usage will be decided dynamically.
 Closed shell SCF:
 Using DIIS extrapolation, IDIIS=  1040.
 NGot=   104857600 LenX=   104051656 LenY=   103659154
 Requested convergence on RMS density matrix=1.00D-08 within 128 cycles.
 Requested convergence on MAX density matrix=1.00D-06.
 Requested convergence on             energy=1.00D-06.
 No special actions if energy rises.
 Fock matrices will be formed incrementally for  20 cycles.
 Integral accuracy reduced to 1.0D-05 until final iterations.

 Cycle   1  Pass 0  IDiag  1:
 FoFJK:  IHMeth= 1 ICntrl=       0 DoSepK=F KAlg= 0 I1Cent=           0 FoldK=F
 IRaf= 990000000 NMat=       1 IRICut=       1 DoRegI=T DoRafI=F ISym2E= 0 IDoP0=0 IntGTp=1.
 FoFCou: FMM=T IPFlag=           0 FMFlag=      100000 FMFlg1=        2001
         NFxFlg=           0 DoJE=F BraDBF=F KetDBF=F FulRan=T
         wScrn=  0.000000 ICntrl=         0 IOpCl=  0 I1Cent=           0 NGrid=           0
         NMat0=    1 NMatS0=      1 NMatT0=    0 NMatD0=    1 NMtDS0=    0 NMtDT0=    0
 Symmetry not used in FoFCou.
 FMM levels:  10  Number of levels for PrismC:   9
 E= -1990.34858271641    
 DIIS: error= 2.84D-02 at cycle   1 NSaved=   1.
 NSaved= 1 IEnMin= 1 EnMin= -1990.34858271641     IErMin= 1 ErrMin= 2.84D-02
 ErrMax= 2.84D-02  0.00D+00 EMaxC= 1.00D-01 BMatC= 1.22D+00 BMatP= 1.22D+00
 IDIUse=3 WtCom= 7.16D-01 WtEn= 2.84D-01
 Coeff-Com:  0.100D+01
 Coeff-En:   0.100D+01
 Coeff:      0.100D+01
 Gap=     0.372 Goal=   None    Shift=    0.000
 GapD=    0.372 DampG=1.000 DampE=0.500 DampFc=0.5000 IDamp=-1.
 Damping current iteration by 5.00D-01
 RMSDP=3.21D-03 MaxDP=3.20D-01              OVMax= 1.38D-01

 Cycle   2  Pass 0  IDiag  1:
 RMSU=  1.59D-03    CP:  9.87D-01
 E= -1990.86160904439     Delta-E=       -0.513026327981 Rises=F Damp=T
 DIIS: error= 8.68D-03 at cycle   2 NSaved=   2.
 NSaved= 2 IEnMin= 2 EnMin= -1990.86160904439     IErMin= 2 ErrMin= 8.68D-03
 ErrMax= 8.68D-03  0.00D+00 EMaxC= 1.00D-01 BMatC= 8.81D-02 BMatP= 1.22D+00
 IDIUse=3 WtCom= 9.13D-01 WtEn= 8.68D-02
 Coeff-Com: -0.442D-01 0.104D+01
 Coeff-En:   0.000D+00 0.100D+01
 Coeff:     -0.403D-01 0.104D+01
 Gap=     0.253 Goal=   None    Shift=    0.000
 RMSDP=7.76D-04 MaxDP=7.51D-02 DE=-5.13D-01 OVMax= 9.36D-02

 Cycle   3  Pass 0  IDiag  1:
 RMSU=  7.71D-04    CP:  9.81D-01  1.01D+00
 E= -1991.35662457578     Delta-E=       -0.495015531391 Rises=F Damp=F
 DIIS: error= 7.29D-03 at cycle   3 NSaved=   3.
 NSaved= 3 IEnMin= 3 EnMin= -1991.35662457578     IErMin= 3 ErrMin= 7.29D-03
 ErrMax= 7.29D-03  0.00D+00 EMaxC= 1.00D-01 BMatC= 3.72D-02 BMatP= 8.81D-02
 IDIUse=3 WtCom= 9.27D-01 WtEn= 7.29D-02
 Coeff-Com: -0.715D-01 0.408D+00 0.664D+00
 Coeff-En:   0.000D+00 0.000D+00 0.100D+01
 Coeff:     -0.662D-01 0.378D+00 0.688D+00
 Gap=     0.252 Goal=   None    Shift=    0.000
 RMSDP=4.25D-04 MaxDP=4.05D-02 DE=-4.95D-01 OVMax= 4.01D-02

 Cycle   4  Pass 0  IDiag  1:
 RMSU=  2.89D-04    CP:  9.83D-01  1.09D+00  6.33D-01
 E= -1991.37792593327     Delta-E=       -0.021301357492 Rises=F Damp=F
 DIIS: error= 3.92D-03 at cycle   4 NSaved=   4.
 NSaved= 4 IEnMin= 4 EnMin= -1991.37792593327     IErMin= 4 ErrMin= 3.92D-03
 ErrMax= 3.92D-03  0.00D+00 EMaxC= 1.00D-01 BMatC= 1.08D-02 BMatP= 3.72D-02
 IDIUse=3 WtCom= 9.61D-01 WtEn= 3.92D-02
 Coeff-Com: -0.262D-01 0.863D-01 0.378D+00 0.562D+00
 Coeff-En:   0.000D+00 0.000D+00 0.232D+00 0.768D+00
 Coeff:     -0.251D-01 0.829D-01 0.372D+00 0.570D+00
 Gap=     0.242 Goal=   None    Shift=    0.000
 RMSDP=1.81D-04 MaxDP=1.24D-02 DE=-2.13D-02 OVMax= 2.11D-02

 Cycle   5  Pass 0  IDiag  1:
 RMSU=  8.31D-05    CP:  9.82D-01  1.08D+00  7.49D-01  5.42D-01
 E= -1991.38659217704     Delta-E=       -0.008666243768 Rises=F Damp=F
 DIIS: error= 7.82D-04 at cycle   5 NSaved=   5.
 NSaved= 5 IEnMin= 5 EnMin= -1991.38659217704     IErMin= 5 ErrMin= 7.82D-04
 ErrMax= 7.82D-04  0.00D+00 EMaxC= 1.00D-01 BMatC= 5.80D-04 BMatP= 1.08D-02
 IDIUse=3 WtCom= 9.92D-01 WtEn= 7.82D-03
 Coeff-Com: -0.811D-02 0.194D-01 0.146D+00 0.287D+00 0.556D+00
 Coeff-En:   0.000D+00 0.000D+00 0.000D+00 0.000D+00 0.100D+01
 Coeff:     -0.804D-02 0.192D-01 0.145D+00 0.285D+00 0.559D+00
 Gap=     0.244 Goal=   None    Shift=    0.000
 RMSDP=4.81D-05 MaxDP=3.71D-03 DE=-8.67D-03 OVMax= 5.99D-03

 Cycle   6  Pass 0  IDiag  1:
 RMSU=  2.40D-05    CP:  9.82D-01  1.08D+00  7.52D-01  6.14D-01  5.68D-01
 E= -1991.38708936482     Delta-E=       -0.000497187781 Rises=F Damp=F
 DIIS: error= 1.96D-04 at cycle   6 NSaved=   6.
 NSaved= 6 IEnMin= 6 EnMin= -1991.38708936482     IErMin= 6 ErrMin= 1.96D-04
 ErrMax= 1.96D-04  0.00D+00 EMaxC= 1.00D-01 BMatC= 3.81D-05 BMatP= 5.80D-04
 IDIUse=3 WtCom= 9.98D-01 WtEn= 1.96D-03
 Coeff-Com: -0.119D-02 0.105D-02 0.310D-01 0.769D-01 0.261D+00 0.632D+00
 Coeff-En:   0.000D+00 0.000D+00 0.000D+00 0.000D+00 0.000D+00 0.100D+01
 Coeff:     -0.119D-02 0.105D-02 0.310D-01 0.767D-01 0.260D+00 0.632D+00
 Gap=     0.243 Goal=   None    Shift=    0.000
 RMSDP=1.23D-05 MaxDP=6.80D-04 DE=-4.97D-04 OVMax= 1.95D-03

 Cycle   7  Pass 0  IDiag  1:
 RMSU=  7.90D-06    CP:  9.82D-01  1.08D+00  7.55D-01  6.14D-01  6.41D-01
                    CP:  7.16D-01
 E= -1991.38712712274     Delta-E=       -0.000037757914 Rises=F Damp=F
 DIIS: error= 4.01D-05 at cycle   7 NSaved=   7.
 NSaved= 7 IEnMin= 7 EnMin= -1991.38712712274     IErMin= 7 ErrMin= 4.01D-05
 ErrMax= 4.01D-05  0.00D+00 EMaxC= 1.00D-01 BMatC= 2.93D-06 BMatP= 3.81D-05
 IDIUse=1 WtCom= 1.00D+00 WtEn= 0.00D+00
 Coeff-Com:  0.292D-03-0.145D-02-0.663D-03 0.606D-02 0.628D-01 0.269D+00
 Coeff-Com:  0.664D+00
 Coeff:      0.292D-03-0.145D-02-0.663D-03 0.606D-02 0.628D-01 0.269D+00
 Coeff:      0.664D+00
 Gap=     0.243 Goal=   None    Shift=    0.000
 RMSDP=4.15D-06 MaxDP=2.32D-04 DE=-3.78D-05 OVMax= 3.59D-04

 Initial convergence to 1.0D-05 achieved.  Increase integral accuracy.
 Cycle   8  Pass 1  IDiag  1:
 E= -1991.38713640049     Delta-E=       -0.000009277751 Rises=F Damp=F
 DIIS: error= 1.40D-04 at cycle   1 NSaved=   1.
 NSaved= 1 IEnMin= 1 EnMin= -1991.38713640049     IErMin= 1 ErrMin= 1.40D-04
 ErrMax= 1.40D-04  0.00D+00 EMaxC= 1.00D-01 BMatC= 1.19D-05 BMatP= 1.19D-05
 IDIUse=3 WtCom= 9.99D-01 WtEn= 1.40D-03
 Coeff-Com:  0.100D+01
 Coeff-En:   0.100D+01
 Coeff:      0.100D+01
 Gap=     0.243 Goal=   None    Shift=    0.000
 RMSDP=4.15D-06 MaxDP=2.32D-04 DE=-9.28D-06 OVMax= 5.80D-04

 Cycle   9  Pass 1  IDiag  1:
 RMSU=  6.47D-05    CP:  1.00D+00
 E= -1991.38714728624     Delta-E=       -0.000010885753 Rises=F Damp=F
 DIIS: error= 2.49D-05 at cycle   2 NSaved=   2.
 NSaved= 2 IEnMin= 2 EnMin= -1991.38714728624     IErMin= 2 ErrMin= 2.49D-05
 ErrMax= 2.49D-05  0.00D+00 EMaxC= 1.00D-01 BMatC= 9.17D-07 BMatP= 1.19D-05
 IDIUse=1 WtCom= 1.00D+00 WtEn= 0.00D+00
 Coeff-Com:  0.864D-01 0.914D+00
 Coeff:      0.864D-01 0.914D+00
 Gap=     0.243 Goal=   None    Shift=    0.000
 RMSDP=3.98D-06 MaxDP=2.55D-04 DE=-1.09D-05 OVMax= 4.49D-04

 Cycle  10  Pass 1  IDiag  1:
 RMSU=  3.55D-06    CP:  1.00D+00  1.03D+00
 E= -1991.38714681659     Delta-E=        0.000000469645 Rises=F Damp=F
 DIIS: error= 3.51D-05 at cycle   3 NSaved=   3.
 NSaved= 3 IEnMin= 2 EnMin= -1991.38714728624     IErMin= 2 ErrMin= 2.49D-05
 ErrMax= 3.51D-05  0.00D+00 EMaxC= 1.00D-01 BMatC= 1.46D-06 BMatP= 9.17D-07
 IDIUse=1 WtCom= 1.00D+00 WtEn= 0.00D+00
 Coeff-Com: -0.161D-01 0.564D+00 0.452D+00
 Coeff:     -0.161D-01 0.564D+00 0.452D+00
 Gap=     0.243 Goal=   None    Shift=    0.000
 RMSDP=1.98D-06 MaxDP=1.58D-04 DE= 4.70D-07 OVMax= 3.25D-04

 Cycle  11  Pass 1  IDiag  1:
 RMSU=  6.28D-07    CP:  1.00D+00  1.03D+00  4.80D-01
 E= -1991.38714808579     Delta-E=       -0.000001269194 Rises=F Damp=F
 DIIS: error= 3.88D-06 at cycle   4 NSaved=   4.
 NSaved= 4 IEnMin= 4 EnMin= -1991.38714808579     IErMin= 4 ErrMin= 3.88D-06
 ErrMax= 3.88D-06  0.00D+00 EMaxC= 1.00D-01 BMatC= 1.14D-08 BMatP= 9.17D-07
 IDIUse=1 WtCom= 1.00D+00 WtEn= 0.00D+00
 Coeff-Com: -0.880D-02 0.249D+00 0.216D+00 0.544D+00
 Coeff:     -0.880D-02 0.249D+00 0.216D+00 0.544D+00
 Gap=     0.243 Goal=   None    Shift=    0.000
 RMSDP=2.20D-07 MaxDP=1.14D-05 DE=-1.27D-06 OVMax= 2.05D-05

 Cycle  12  Pass 1  IDiag  1:
 RMSU=  2.00D-07    CP:  1.00D+00  1.03D+00  4.97D-01  8.95D-01
 E= -1991.38714809613     Delta-E=       -0.000000010340 Rises=F Damp=F
 DIIS: error= 1.22D-06 at cycle   5 NSaved=   5.
 NSaved= 5 IEnMin= 5 EnMin= -1991.38714809613     IErMin= 5 ErrMin= 1.22D-06
 ErrMax= 1.22D-06  0.00D+00 EMaxC= 1.00D-01 BMatC= 9.38D-10 BMatP= 1.14D-08
 IDIUse=1 WtCom= 1.00D+00 WtEn= 0.00D+00
 Coeff-Com: -0.377D-03-0.900D-02 0.421D-02 0.185D+00 0.820D+00
 Coeff:     -0.377D-03-0.900D-02 0.421D-02 0.185D+00 0.820D+00
 Gap=     0.243 Goal=   None    Shift=    0.000
 RMSDP=9.45D-08 MaxDP=3.94D-06 DE=-1.03D-08 OVMax= 1.64D-05

 Cycle  13  Pass 1  IDiag  1:
 RMSU=  7.20D-08    CP:  1.00D+00  1.03D+00  5.01D-01  9.83D-01  9.15D-01
 E= -1991.38714809705     Delta-E=       -0.000000000924 Rises=F Damp=F
 DIIS: error= 5.34D-07 at cycle   6 NSaved=   6.
 NSaved= 6 IEnMin= 6 EnMin= -1991.38714809705     IErMin= 6 ErrMin= 5.34D-07
 ErrMax= 5.34D-07  0.00D+00 EMaxC= 1.00D-01 BMatC= 3.29D-10 BMatP= 9.38D-10
 IDIUse=1 WtCom= 1.00D+00 WtEn= 0.00D+00
 Coeff-Com:  0.108D-02-0.410D-01-0.272D-01 0.183D-01 0.457D+00 0.592D+00
 Coeff:      0.108D-02-0.410D-01-0.272D-01 0.183D-01 0.457D+00 0.592D+00
 Gap=     0.243 Goal=   None    Shift=    0.000
 RMSDP=3.78D-08 MaxDP=3.19D-06 DE=-9.24D-10 OVMax= 4.97D-06

 Cycle  14  Pass 1  IDiag  1:
 RMSU=  2.68D-08    CP:  1.00D+00  1.03D+00  5.04D-01  9.99D-01  1.01D+00
                    CP:  8.17D-01
 E= -1991.38714809745     Delta-E=       -0.000000000396 Rises=F Damp=F
 DIIS: error= 2.32D-07 at cycle   7 NSaved=   7.
 NSaved= 7 IEnMin= 7 EnMin= -1991.38714809745     IErMin= 7 ErrMin= 2.32D-07
 ErrMax= 2.32D-07  0.00D+00 EMaxC= 1.00D-01 BMatC= 2.19D-11 BMatP= 3.29D-10
 IDIUse=1 WtCom= 1.00D+00 WtEn= 0.00D+00
 Coeff-Com:  0.487D-03-0.163D-01-0.110D-01-0.146D-01 0.107D+00 0.239D+00
 Coeff-Com:  0.696D+00
 Coeff:      0.487D-03-0.163D-01-0.110D-01-0.146D-01 0.107D+00 0.239D+00
 Coeff:      0.696D+00
 Gap=     0.243 Goal=   None    Shift=    0.000
 RMSDP=1.22D-08 MaxDP=8.14D-07 DE=-3.96D-10 OVMax= 1.81D-06

 Cycle  15  Pass 1  IDiag  1:
 RMSU=  9.03D-09    CP:  1.00D+00  1.03D+00  5.05D-01  1.00D+00  1.02D+00
                    CP:  9.01D-01  1.07D+00
 E= -1991.38714809748     Delta-E=       -0.000000000029 Rises=F Damp=F
 DIIS: error= 5.24D-08 at cycle   8 NSaved=   8.
 NSaved= 8 IEnMin= 8 EnMin= -1991.38714809748     IErMin= 8 ErrMin= 5.24D-08
 ErrMax= 5.24D-08  0.00D+00 EMaxC= 1.00D-01 BMatC= 3.34D-12 BMatP= 2.19D-11
 IDIUse=1 WtCom= 1.00D+00 WtEn= 0.00D+00
 Coeff-Com: -0.417D-04 0.243D-02 0.199D-02-0.109D-01-0.537D-01-0.286D-01
 Coeff-Com:  0.277D+00 0.812D+00
 Coeff:     -0.417D-04 0.243D-02 0.199D-02-0.109D-01-0.537D-01-0.286D-01
 Coeff:      0.277D+00 0.812D+00
 Gap=     0.243 Goal=   None    Shift=    0.000
 RMSDP=5.42D-09 MaxDP=3.88D-07 DE=-2.91D-11 OVMax= 8.21D-07

 SCF Done:  E(RM062X) =  -1991.38714810     A.U. after   15 cycles
            NFock= 15  Conv=0.54D-08     -V/T= 2.0075
 KE= 1.976478547093D+03 PE=-1.444972286470D+04 EE= 5.583270244227D+03
 Leave Link  502 at Thu Feb  7 23:14:07 2019, MaxMem=   104857600 cpu:            3711.2 elap:             155.0
 (Enter /home/xinyan/g16/l601.exe)
 Copying SCF densities to generalized density rwf, IOpCl= 0 IROHF=0.

 **********************************************************************

            Population analysis using the SCF density.

 **********************************************************************

 Orbital symmetries:
       Occupied  (A) (A) (A) (A) (A) (A) (A) (A) (A) (A) (A) (A)
                 (A) (A) (A) (A) (A) (A) (A) (A) (A) (A) (A) (A)
                 (A) (A) (A) (A) (A) (A) (A) (A) (A) (A) (A) (A)
                 (A) (A) (A) (A) (A) (A) (A) (A) (A) (A) (A) (A)
                 (A) (A) (A) (A) (A) (A) (A) (A) (A) (A) (A) (A)
                 (A) (A) (A) (A) (A) (A) (A) (A) (A) (A) (A) (A)
                 (A) (A) (A) (A) (A) (A) (A) (A) (A) (A) (A) (A)
                 (A) (A) (A) (A) (A) (A) (A) (A) (A) (A) (A) (A)
                 (A) (A) (A) (A) (A) (A) (A) (A) (A) (A) (A) (A)
                 (A) (A) (A) (A) (A) (A) (A) (A) (A) (A) (A) (A)
                 (A) (A) (A) (A) (A) (A) (A) (A) (A) (A) (A) (A)
                 (A) (A) (A) (A) (A) (A) (A) (A)
       Virtual   (A) (A) (A) (A) (A) (A) (A) (A) (A) (A) (A) (A)
                 (A) (A) (A) (A) (A) (A) (A) (A) (A) (A) (A) (A)
                 (A) (A) (A) (A) (A) (A) (A) (A) (A) (A) (A) (A)
                 (A) (A) (A) (A) (A) (A) (A) (A) (A) (A) (A) (A)
                 (A) (A) (A) (A) (A) (A) (A) (A) (A) (A) (A) (A)
                 (A) (A) (A) (A) (A) (A) (A) (A) (A) (A) (A) (A)
                 (A) (A) (A) (A) (A) (A) (A) (A) (A) (A) (A) (A)
                 (A) (A) (A) (A) (A) (A) (A) (A) (A) (A) (A) (A)
                 (A) (A) (A) (A) (A) (A) (A) (A) (A) (A) (A) (A)
                 (A) (A) (A) (A) (A) (A) (A) (A) (A) (A) (A) (A)
                 (A) (A) (A) (A) (A) (A) (A) (A) (A) (A) (A) (A)
                 (A) (A) (A) (A) (A) (A) (A) (A) (A) (A) (A) (A)
                 (A) (A) (A) (A) (A) (A) (A) (A) (A) (A) (A) (A)
                 (A) (A) (A) (A) (A) (A) (A) (A) (A) (A) (A) (A)
                 (A) (A) (A) (A) (A) (A) (A) (A) (A) (A) (A) (A)
                 (A) (A) (A) (A) (A) (A) (A) (A) (A) (A) (A) (A)
                 (A) (A) (A) (A) (A) (A) (A) (A) (A) (A) (A) (A)
                 (A) (A) (A) (A) (A) (A) (A) (A) (A) (A) (A) (A)
                 (A) (A) (A) (A) (A) (A) (A) (A) (A) (A) (A) (A)
                 (A) (A) (A) (A) (A) (A) (A) (A) (A) (A) (A) (A)
                 (A) (A) (A) (A) (A) (A) (A) (A) (A) (A) (A) (A)
                 (A) (A) (A) (A) (A) (A) (A) (A) (A) (A) (A) (A)
                 (A) (A) (A) (A) (A) (A) (A) (A) (A) (A) (A) (A)
                 (A) (A) (A) (A) (A) (A) (A) (A) (A) (A) (A) (A)
                 (A) (A) (A) (A) (A) (A) (A) (A) (A) (A) (A) (A)
                 (A) (A) (A) (A) (A) (A) (A) (A) (A) (A) (A) (A)
                 (A) (A) (A) (A) (A) (A) (A) (A) (A) (A) (A) (A)
                 (A) (A) (A) (A) (A) (A) (A) (A) (A) (A) (A) (A)
                 (A) (A) (A) (A) (A) (A) (A) (A) (A) (A) (A) (A)
                 (A) (A) (A) (A) (A) (A) (A) (A) (A) (A) (A) (A)
                 (A) (A) (A) (A) (A) (A) (A) (A) (A) (A) (A) (A)
                 (A) (A) (A) (A) (A) (A) (A) (A) (A) (A) (A) (A)
                 (A) (A) (A) (A) (A) (A) (A) (A) (A) (A) (A) (A)
                 (A) (A) (A) (A) (A) (A) (A) (A) (A) (A) (A) (A)
                 (A) (A) (A) (A) (A) (A) (A) (A) (A) (A) (A) (A)
                 (A) (A) (A) (A) (A) (A) (A) (A) (A) (A) (A) (A)
                 (A) (A) (A) (A) (A) (A) (A) (A) (A) (A) (A) (A)
                 (A) (A) (A) (A) (A) (A) (A) (A) (A) (A) (A) (A)
                 (A) (A) (A) (A) (A) (A) (A) (A) (A) (A) (A) (A)
                 (A) (A) (A) (A) (A) (A) (A) (A) (A) (A) (A) (A)
                 (A) (A) (A) (A) (A) (A)
 The electronic state is 1-A.
 Alpha  occ. eigenvalues --  -90.10310 -19.63435 -19.60120 -19.59064 -19.58489
 Alpha  occ. eigenvalues --  -19.58322 -14.84786 -14.80467 -14.69335 -10.65564
 Alpha  occ. eigenvalues --  -10.63212 -10.62410 -10.61510 -10.59114 -10.59114
 Alpha  occ. eigenvalues --  -10.58993 -10.57822 -10.57402 -10.56782 -10.56677
 Alpha  occ. eigenvalues --  -10.55992 -10.55725 -10.55564 -10.55003 -10.54940
 Alpha  occ. eigenvalues --  -10.54888 -10.54613 -10.54577 -10.54506 -10.53849
 Alpha  occ. eigenvalues --  -10.53576 -10.53565 -10.53284 -10.53242 -10.52725
 Alpha  occ. eigenvalues --  -10.52622  -8.41270  -6.33508  -6.33416  -6.33336
 Alpha  occ. eigenvalues --   -1.19171  -1.17817  -1.12925  -1.10182  -1.09896
 Alpha  occ. eigenvalues --   -1.09110  -1.06088  -0.97524  -0.95296  -0.94765
 Alpha  occ. eigenvalues --   -0.92185  -0.89834  -0.88565  -0.88190  -0.85043
 Alpha  occ. eigenvalues --   -0.84906  -0.83668  -0.83513  -0.83299  -0.80126
 Alpha  occ. eigenvalues --   -0.79254  -0.76330  -0.75634  -0.74673  -0.70935
 Alpha  occ. eigenvalues --   -0.70216  -0.69190  -0.68690  -0.68344  -0.68047
 Alpha  occ. eigenvalues --   -0.65888  -0.64737  -0.63924  -0.63445  -0.61601
 Alpha  occ. eigenvalues --   -0.60257  -0.59374  -0.59032  -0.58349  -0.56158
 Alpha  occ. eigenvalues --   -0.55489  -0.55205  -0.55102  -0.54200  -0.53758
 Alpha  occ. eigenvalues --   -0.53444  -0.53059  -0.52510  -0.51928  -0.51686
 Alpha  occ. eigenvalues --   -0.51101  -0.50970  -0.50613  -0.50080  -0.49832
 Alpha  occ. eigenvalues --   -0.49595  -0.49537  -0.48799  -0.48328  -0.47991
 Alpha  occ. eigenvalues --   -0.47805  -0.47188  -0.47031  -0.46973  -0.45889
 Alpha  occ. eigenvalues --   -0.45694  -0.45224  -0.43943  -0.43659  -0.43439
 Alpha  occ. eigenvalues --   -0.42805  -0.42648  -0.42195  -0.42011  -0.41873
 Alpha  occ. eigenvalues --   -0.41169  -0.40893  -0.40537  -0.39893  -0.39571
 Alpha  occ. eigenvalues --   -0.39360  -0.39261  -0.38900  -0.38396  -0.37969
 Alpha  occ. eigenvalues --   -0.37318  -0.36219  -0.35819  -0.35341  -0.35143
 Alpha  occ. eigenvalues --   -0.34334  -0.33057  -0.32029  -0.31652  -0.31476
 Alpha  occ. eigenvalues --   -0.29894  -0.28860  -0.28319  -0.27391  -0.25365
 Alpha virt. eigenvalues --   -0.01034   0.00668   0.03207   0.03758   0.08977
 Alpha virt. eigenvalues --    0.10170   0.10912   0.11814   0.12958   0.13548
 Alpha virt. eigenvalues --    0.13860   0.14292   0.15000   0.15480   0.15821
 Alpha virt. eigenvalues --    0.16196   0.16452   0.17252   0.17514   0.17986
 Alpha virt. eigenvalues --    0.18313   0.18392   0.18587   0.18923   0.19156
 Alpha virt. eigenvalues --    0.19439   0.19628   0.20045   0.20364   0.20462
 Alpha virt. eigenvalues --    0.20847   0.20985   0.21252   0.21645   0.21914
 Alpha virt. eigenvalues --    0.22223   0.22591   0.22809   0.22850   0.23212
 Alpha virt. eigenvalues --    0.23721   0.23915   0.24315   0.24410   0.24585
 Alpha virt. eigenvalues --    0.24905   0.25279   0.25324   0.25907   0.26432
 Alpha virt. eigenvalues --    0.27059   0.27433   0.27610   0.28153   0.28340
 Alpha virt. eigenvalues --    0.28663   0.29412   0.29580   0.30410   0.30568
 Alpha virt. eigenvalues --    0.30800   0.31131   0.31690   0.32154   0.32587
 Alpha virt. eigenvalues --    0.32951   0.33569   0.34635   0.35245   0.35452
 Alpha virt. eigenvalues --    0.35850   0.36650   0.37243   0.38184   0.38506
 Alpha virt. eigenvalues --    0.39643   0.39846   0.41249   0.41756   0.42950
 Alpha virt. eigenvalues --    0.44943   0.47216   0.47686   0.48606   0.50131
 Alpha virt. eigenvalues --    0.51100   0.52382   0.53477   0.53723   0.55284
 Alpha virt. eigenvalues --    0.55611   0.56191   0.56895   0.57035   0.57832
 Alpha virt. eigenvalues --    0.58014   0.58825   0.58922   0.59142   0.59323
 Alpha virt. eigenvalues --    0.59620   0.60395   0.60843   0.61021   0.61231
 Alpha virt. eigenvalues --    0.61482   0.61655   0.61850   0.62495   0.62747
 Alpha virt. eigenvalues --    0.63584   0.63852   0.64390   0.64733   0.65366
 Alpha virt. eigenvalues --    0.65955   0.66174   0.66941   0.67393   0.67612
 Alpha virt. eigenvalues --    0.67717   0.68445   0.69001   0.69382   0.70173
 Alpha virt. eigenvalues --    0.70712   0.71318   0.71756   0.71923   0.72835
 Alpha virt. eigenvalues --    0.73070   0.73674   0.74050   0.74623   0.75267
 Alpha virt. eigenvalues --    0.75581   0.75918   0.76342   0.76867   0.77480
 Alpha virt. eigenvalues --    0.78234   0.78773   0.79397   0.80010   0.80883
 Alpha virt. eigenvalues --    0.81345   0.81556   0.82627   0.83082   0.83720
 Alpha virt. eigenvalues --    0.84599   0.85302   0.85398   0.85486   0.86567
 Alpha virt. eigenvalues --    0.86916   0.87556   0.88112   0.88635   0.88775
 Alpha virt. eigenvalues --    0.89518   0.89706   0.90431   0.90643   0.90920
 Alpha virt. eigenvalues --    0.91280   0.91656   0.92264   0.92532   0.92838
 Alpha virt. eigenvalues --    0.93061   0.93458   0.93972   0.94146   0.94748
 Alpha virt. eigenvalues --    0.95288   0.95587   0.96296   0.96475   0.96639
 Alpha virt. eigenvalues --    0.96777   0.97109   0.97314   0.97801   0.98101
 Alpha virt. eigenvalues --    0.98577   0.99095   0.99174   0.99565   0.99623
 Alpha virt. eigenvalues --    1.00216   1.00326   1.01480   1.01772   1.02136
 Alpha virt. eigenvalues --    1.02454   1.03067   1.03632   1.04118   1.04948
 Alpha virt. eigenvalues --    1.05319   1.05645   1.06001   1.06436   1.06760
 Alpha virt. eigenvalues --    1.07788   1.08361   1.08951   1.10192   1.11209
 Alpha virt. eigenvalues --    1.11759   1.12494   1.12794   1.13521   1.14368
 Alpha virt. eigenvalues --    1.15047   1.15655   1.16709   1.17567   1.18606
 Alpha virt. eigenvalues --    1.18834   1.19366   1.19643   1.20989   1.21602
 Alpha virt. eigenvalues --    1.22453   1.23161   1.24230   1.24846   1.25428
 Alpha virt. eigenvalues --    1.26297   1.26874   1.27614   1.28031   1.29321
 Alpha virt. eigenvalues --    1.29790   1.30250   1.31356   1.32121   1.33108
 Alpha virt. eigenvalues --    1.33634   1.34660   1.35278   1.36302   1.36404
 Alpha virt. eigenvalues --    1.37665   1.38966   1.39625   1.40263   1.40799
 Alpha virt. eigenvalues --    1.41590   1.42484   1.43756   1.44122   1.44591
 Alpha virt. eigenvalues --    1.45347   1.46500   1.48047   1.48674   1.49342
 Alpha virt. eigenvalues --    1.49903   1.50230   1.51184   1.51705   1.52492
 Alpha virt. eigenvalues --    1.52552   1.53122   1.54078   1.55128   1.55369
 Alpha virt. eigenvalues --    1.55898   1.56596   1.57649   1.58472   1.58866
 Alpha virt. eigenvalues --    1.60278   1.61134   1.61906   1.62456   1.63795
 Alpha virt. eigenvalues --    1.67193   1.67587   1.68689   1.70301   1.71321
 Alpha virt. eigenvalues --    1.72695   1.73852   1.75650   1.76070   1.77029
 Alpha virt. eigenvalues --    1.78100   1.78345   1.79869   1.80060   1.81334
 Alpha virt. eigenvalues --    1.81784   1.83045   1.83366   1.84411   1.84700
 Alpha virt. eigenvalues --    1.86115   1.86612   1.86874   1.87397   1.88519
 Alpha virt. eigenvalues --    1.88712   1.89666   1.90373   1.91188   1.91431
 Alpha virt. eigenvalues --    1.91978   1.92215   1.92665   1.93353   1.93493
 Alpha virt. eigenvalues --    1.93998   1.94559   1.95040   1.95656   1.96322
 Alpha virt. eigenvalues --    1.97360   1.97715   1.98678   1.98856   1.99827
 Alpha virt. eigenvalues --    2.00300   2.01105   2.01517   2.02488   2.03204
 Alpha virt. eigenvalues --    2.03594   2.03859   2.04030   2.04704   2.05597
 Alpha virt. eigenvalues --    2.06096   2.06641   2.07015   2.07351   2.08462
 Alpha virt. eigenvalues --    2.08560   2.09634   2.09678   2.10440   2.11207
 Alpha virt. eigenvalues --    2.11758   2.12407   2.13078   2.13646   2.14185
 Alpha virt. eigenvalues --    2.15054   2.16007   2.16152   2.17135   2.17576
 Alpha virt. eigenvalues --    2.18740   2.19179   2.19907   2.20801   2.21221
 Alpha virt. eigenvalues --    2.21835   2.22481   2.22976   2.24125   2.24421
 Alpha virt. eigenvalues --    2.24895   2.25306   2.25991   2.27182   2.28528
 Alpha virt. eigenvalues --    2.29038   2.29517   2.30548   2.31081   2.31982
 Alpha virt. eigenvalues --    2.32369   2.32947   2.33217   2.34930   2.35269
 Alpha virt. eigenvalues --    2.36016   2.36562   2.37016   2.37957   2.38332
 Alpha virt. eigenvalues --    2.39467   2.39778   2.40087   2.41074   2.41912
 Alpha virt. eigenvalues --    2.42665   2.43558   2.44297   2.45102   2.46533
 Alpha virt. eigenvalues --    2.49110   2.50286   2.51636   2.51868   2.52105
 Alpha virt. eigenvalues --    2.53185   2.54053   2.55920   2.56320   2.56618
 Alpha virt. eigenvalues --    2.59590   2.60361   2.61488   2.62321   2.63450
 Alpha virt. eigenvalues --    2.63610   2.65409   2.66078   2.66791   2.67998
 Alpha virt. eigenvalues --    2.68445   2.68676   2.69821   2.71168   2.71445
 Alpha virt. eigenvalues --    2.72748   2.72932   2.74186   2.76489   2.76802
 Alpha virt. eigenvalues --    2.77641   2.78380   2.79605   2.79736   2.80398
 Alpha virt. eigenvalues --    2.83138   2.83983   2.86380   2.87375   2.89008
 Alpha virt. eigenvalues --    2.93048   2.93346   2.94067   2.95293   2.96388
 Alpha virt. eigenvalues --    2.99587   3.00054   3.01188   3.02544   3.10288
 Alpha virt. eigenvalues --    3.17674   3.20613   3.23642   3.42516   3.43114
 Alpha virt. eigenvalues --    3.96889   4.03111   4.07459   4.11037   4.12162
 Alpha virt. eigenvalues --    4.14323   4.15914   4.17240   4.18255   4.19874
 Alpha virt. eigenvalues --    4.22187   4.24401   4.24844   4.26397   4.26944
 Alpha virt. eigenvalues --    4.31011   4.31509   4.33082   4.34743   4.36271
 Alpha virt. eigenvalues --    4.37221   4.38263   4.40275   4.41281   4.44658
 Alpha virt. eigenvalues --    4.47012   4.49247   4.52729   4.58665   4.59224
 Alpha virt. eigenvalues --    4.62172   4.64372   4.65964   4.75166   4.75698
 Alpha virt. eigenvalues --    4.78327
          Condensed to atoms (all electrons):
 Mulliken charges:
               1
     1  C   -0.303935
     2  C   -0.304179
     3  C   -0.309636
     4  C   -0.072983
     5  C    0.064505
     6  C   -0.304954
     7  H    0.166471
     8  H    0.161045
     9  H    0.159150
    10  H    0.145693
    11  H    0.156815
    12  H    0.211747
    13  H    0.141142
    14  H    0.179459
    15  H    0.150128
    16  H    0.150065
    17  N   -0.423988
    18  C    0.098815
    19  C    0.084873
    20  C   -0.227171
    21  H    0.204704
    22  C   -0.226452
    23  H    0.263204
    24  C    0.427615
    25  H    0.187868
    26  H    0.207457
    27  N   -0.527958
    28  C   -0.158284
    29  H    0.178316
    30  H    0.198738
    31  C   -0.146434
    32  H    0.169592
    33  H    0.194814
    34  N   -0.759391
    35  S    1.249208
    36  O   -0.644497
    37  O   -0.669869
    38  C    0.049152
    39  C   -0.176394
    40  C   -0.187821
    41  C   -0.169617
    42  C   -0.161438
    43  C   -0.198897
    44  H    0.204718
    45  H    0.139193
    46  H    0.156611
    47  H    0.162033
    48  H    0.157714
    49  O   -0.715365
    50  H    0.483709
    51  C    0.654298
    52  O   -0.521784
    53  O   -0.646590
    54  H    0.485201
    55  C   -0.370527
    56  H    0.202277
    57  H    0.165072
    58  C   -0.064151
    59  H    0.127453
    60  H    0.151354
    61  C   -0.659588
    62  H    0.223677
    63  H    0.187031
    64  H    0.206977
    65  C   -0.288588
    66  H    0.145008
    67  H    0.163112
    68  C   -0.480340
    69  H    0.159028
    70  H    0.158418
    71  H    0.151260
    72  C   -0.336973
    73  H    0.184412
    74  H    0.169909
    75  C   -0.335865
    76  H    0.181592
    77  H    0.173037
 Sum of Mulliken charges =  -0.00000
 Mulliken charges with hydrogens summed into heavy atoms:
               1
     1  C   -0.001427
     2  C    0.016016
     3  C    0.006901
     4  C    0.138765
     5  C    0.205648
     6  C    0.024633
    17  N   -0.423988
    18  C    0.303519
    19  C    0.348077
    20  C   -0.039303
    22  C   -0.018996
    24  C    0.427615
    27  N   -0.527958
    28  C    0.218770
    31  C    0.217972
    34  N   -0.759391
    35  S    1.249208
    36  O   -0.644497
    37  O   -0.669869
    38  C    0.049152
    39  C    0.028325
    40  C   -0.048628
    41  C   -0.013005
    42  C    0.000595
    43  C   -0.041183
    49  O   -0.231655
    51  C    0.654298
    52  O   -0.521784
    53  O   -0.161389
    55  C   -0.003178
    58  C    0.214656
    61  C   -0.041904
    65  C    0.019531
    68  C   -0.011635
    72  C    0.017348
    75  C    0.018763
 Electronic spatial extent (au):  <R**2>=          14994.6173
 Charge=              0.0000 electrons
 Dipole moment (field-independent basis, Debye):
    X=              1.5452    Y=             -0.2577    Z=             -6.6210  Tot=              6.8038
 Quadrupole moment (field-independent basis, Debye-Ang):
   XX=           -198.9547   YY=           -222.5760   ZZ=           -222.4228
   XY=            -11.7125   XZ=             -0.3851   YZ=             12.6072
 Traceless Quadrupole moment (field-independent basis, Debye-Ang):
   XX=             15.6965   YY=             -7.9248   ZZ=             -7.7716
   XY=            -11.7125   XZ=             -0.3851   YZ=             12.6072
 Octapole moment (field-independent basis, Debye-Ang**2):
  XXX=             72.1732  YYY=            -29.9920  ZZZ=             -0.7600  XYY=             20.9425
  XXY=            -11.8321  XXZ=            -26.4255  XZZ=             -6.1406  YZZ=             19.6600
  YYZ=             10.1206  XYZ=            -16.5689
 Hexadecapole moment (field-independent basis, Debye-Ang**3):
 XXXX=         -10018.3452 YYYY=          -5780.1405 ZZZZ=          -3803.8672 XXXY=           -170.0852
 XXXZ=             -8.0797 YYYX=            -96.7794 YYYZ=             80.1434 ZZZX=            -73.5545
 ZZZY=             16.6824 XXYY=          -2631.5204 XXZZ=          -2370.3016 YYZZ=          -1723.5582
 XXYZ=             49.2887 YYXZ=             59.6536 ZZXY=            -46.9909
 N-N= 4.898586925278D+03 E-N=-1.444972282258D+04  KE= 1.976478547093D+03
 No NMR shielding tensors so no spin-rotation constants.
 Leave Link  601 at Thu Feb  7 23:14:09 2019, MaxMem=   104857600 cpu:              23.4 elap:               1.1
 (Enter /home/xinyan/g16/l701.exe)
 ... and contract with generalized density number  0.
 Compute integral first derivatives.
 R6Disp: Adding Grimme-D3 dispersion energy 1st derivatives to the gradient.
 Leave Link  701 at Thu Feb  7 23:14:10 2019, MaxMem=   104857600 cpu:              22.1 elap:               1.0
 (Enter /home/xinyan/g16/l702.exe)
 L702 exits ... SP integral derivatives will be done elsewhere.
 Leave Link  702 at Thu Feb  7 23:14:10 2019, MaxMem=   104857600 cpu:               1.5 elap:               0.1
 (Enter /home/xinyan/g16/l703.exe)
 Integral derivatives from FoFJK, PRISM(SPDF).
 Compute integral first derivatives, UseDBF=F ICtDFT=           0.
 Calling FoFJK, ICntrl=      2127 FMM=T ISym2X=0 I1Cent= 0 IOpClX= 0 NMat=1 NMatS=1 NMatT=0.
 FoFJK:  IHMeth= 1 ICntrl=    2127 DoSepK=F KAlg= 0 I1Cent=           0 FoldK=F
 IRaf=         0 NMat=       1 IRICut=       1 DoRegI=T DoRafI=F ISym2E= 0 IDoP0=0 IntGTp=1.
 FoFCou: FMM=T IPFlag=           0 FMFlag=      100000 FMFlg1=        2001
         NFxFlg=           0 DoJE=F BraDBF=F KetDBF=F FulRan=T
         wScrn=  0.000000 ICntrl=      2127 IOpCl=  0 I1Cent=           0 NGrid=           0
         NMat0=    1 NMatS0=      1 NMatT0=    0 NMatD0=    1 NMtDS0=    0 NMtDT0=    0
 Symmetry not used in FoFCou.
 FMM levels:  10  Number of levels for PrismC:   9
 Leave Link  703 at Thu Feb  7 23:14:43 2019, MaxMem=   104857600 cpu:             782.8 elap:              33.6
 (Enter /home/xinyan/g16/l716.exe)
 Dipole        = 6.07913253D-01-1.01393947D-01-2.60488817D+00
 ***** Axes restored to original set *****
 -------------------------------------------------------------------
 Center     Atomic                   Forces (Hartrees/Bohr)
 Number     Number              X              Y              Z
 -------------------------------------------------------------------
      1        6           0.000027023   -0.000108526    0.000008550
      2        6           0.000123883   -0.000046554    0.000150980
      3        6           0.000086765    0.000008102    0.000039648
      4        6           0.000061206    0.000189368    0.000179830
      5        6          -0.000005295    0.000169532   -0.000048838
      6        6           0.000049536    0.000101433    0.000172306
      7        1           0.000080851    0.000068759    0.000071857
      8        1           0.000087659   -0.000037955    0.000084591
      9        1           0.000032956   -0.000018570    0.000136239
     10        1          -0.000084759    0.000027962    0.000146053
     11        1          -0.000009127   -0.000099948    0.000178385
     12        1           0.000129121    0.000036124    0.000164212
     13        1          -0.000030512   -0.000084771    0.000211030
     14        1           0.000108784   -0.000077339    0.000153625
     15        1           0.000023392    0.000019716    0.000136271
     16        1          -0.000004906    0.000086183    0.000072316
     17        7           0.000082266    0.000047997    0.000068106
     18        6           0.000029225    0.000026180   -0.000001917
     19        6           0.000067724    0.000054266    0.000010106
     20        6           0.000066952   -0.000017802   -0.000010931
     21        1           0.000071022    0.000098619    0.000073446
     22        6           0.000032093   -0.000038021   -0.000023099
     23        1           0.000055829    0.000043104    0.000013717
     24        6           0.000053677   -0.000073581   -0.000080649
     25        1           0.000044234   -0.000006330   -0.000024758
     26        1           0.000045540   -0.000079181   -0.000079210
     27        7           0.000083575   -0.000071637   -0.000075305
     28        6           0.000061220   -0.000177002   -0.000150761
     29        1           0.000040364   -0.000159462   -0.000188305
     30        1           0.000124487   -0.000203094   -0.000110565
     31        6           0.000059429   -0.000101560   -0.000122252
     32        1           0.000000530   -0.000093593   -0.000115255
     33        1           0.000066632   -0.000058402   -0.000042490
     34        7           0.000167899    0.000189849    0.000050173
     35       16           0.000010838    0.000088570   -0.000094298
     36        8           0.000052097    0.000029972   -0.000194583
     37        8           0.000113124    0.000045828    0.000040321
     38        6          -0.000214781    0.000272562   -0.000024580
     39        6          -0.000130032    0.000191323   -0.000061904
     40        6           0.000136411   -0.000009341    0.000081440
     41        6          -0.000017202   -0.000024102   -0.000211223
     42        6          -0.000104217    0.000014481   -0.000327969
     43        6          -0.000363019    0.000199299   -0.000340561
     44        1          -0.000184453    0.000261566    0.000208250
     45        1           0.000134033   -0.000022144    0.000098448
     46        1           0.000129015   -0.000151756   -0.000247579
     47        1          -0.000114669   -0.000009619   -0.000504413
     48        1          -0.000386128    0.000247087   -0.000391991
     49        8          -0.000078736    0.000343494   -0.000215947
     50        1           0.000227067    0.000558189    0.000074301
     51        6           0.000146936   -0.000109859    0.000018822
     52        8          -0.000015074   -0.000029359    0.000209407
     53        8          -0.000182130    0.000112258    0.000134858
     54        1          -0.000096947    0.000076633    0.000129723
     55        6           0.000208662   -0.000118349    0.000105177
     56        1           0.000410339   -0.000131445    0.000169863
     57        1           0.000207039   -0.000289047   -0.000137959
     58        6          -0.000423016    0.000211670    0.000009305
     59        1          -0.000580118   -0.000054421   -0.000045599
     60        1          -0.000708090    0.000633186    0.000110039
     61        6          -0.000090911   -0.000111517    0.000097039
     62        1          -0.000226277   -0.000020318    0.000179810
     63        1          -0.000185325   -0.000254857    0.000076115
     64        1          -0.000093086   -0.000213986    0.000024439
     65        6           0.000085518   -0.000061135    0.000097469
     66        1           0.000088047    0.000004832    0.000055040
     67        1           0.000062523   -0.000123498    0.000216572
     68        6          -0.000003337   -0.000012514    0.000148954
     69        1          -0.000134793    0.000072433    0.000181206
     70        1          -0.000006114   -0.000114629    0.000214833
     71        1           0.000044611    0.000072441    0.000037877
     72        6           0.000060889   -0.000190228   -0.000195581
     73        1           0.000099238   -0.000245895   -0.000200603
     74        1           0.000012324   -0.000196080   -0.000218730
     75        6           0.000063425   -0.000197351   -0.000110268
     76        1           0.000142045   -0.000185172   -0.000086804
     77        1           0.000074999   -0.000173065   -0.000155821
 -------------------------------------------------------------------
 Cartesian Forces:  Max     0.000708090 RMS     0.000163233
 Z-matrix is all fixed cartesians, so copy forces.
 Leave Link  716 at Thu Feb  7 23:14:43 2019, MaxMem=   104857600 cpu:               2.4 elap:               0.1
 (Enter /home/xinyan/g16/l103.exe)

 GradGradGradGradGradGradGradGradGradGradGradGradGradGradGradGradGradGrad
 Berny optimization.
 Search for a local minimum.
 Step number   1 out of a maximum of    2
 All quantities printed in internal units (Hartrees-Bohrs-Radians)
 Second derivative matrix not updated -- first step.
 ITU=  0
     Eigenvalues ---   -0.00000  -0.00000   0.00000   0.00000   0.00000
     Eigenvalues ---    0.00000   0.00000   0.00000   0.00000   0.00000
     Eigenvalues ---    0.00000   0.00000   0.00013   0.00018   0.00034
     Eigenvalues ---    0.00063   0.00115   0.00133   0.00167   0.00179
     Eigenvalues ---    0.00203   0.00219   0.00277   0.00284   0.00393
     Eigenvalues ---    0.00444   0.00504   0.00508   0.00589   0.00594
     Eigenvalues ---    0.00662   0.00673   0.00784   0.00974   0.01109
     Eigenvalues ---    0.01223   0.01646   0.01722   0.01727   0.01847
     Eigenvalues ---    0.01885   0.02009   0.02215   0.02390   0.02503
     Eigenvalues ---    0.02550   0.02735   0.02798   0.03090   0.03390
     Eigenvalues ---    0.03508   0.03548   0.03563   0.03646   0.04079
     Eigenvalues ---    0.04146   0.04217   0.04316   0.04641   0.04789
     Eigenvalues ---    0.04857   0.04880   0.04999   0.05050   0.05092
     Eigenvalues ---    0.05104   0.05133   0.05162   0.05302   0.05352
     Eigenvalues ---    0.05500   0.05597   0.05663   0.05693   0.05753
     Eigenvalues ---    0.05762   0.05795   0.06140   0.06237   0.06411
     Eigenvalues ---    0.06509   0.06585   0.06845   0.06964   0.07046
     Eigenvalues ---    0.07088   0.07211   0.07231   0.07290   0.07343
     Eigenvalues ---    0.07554   0.07922   0.07942   0.08019   0.08122
     Eigenvalues ---    0.08169   0.08571   0.08622   0.09114   0.09684
     Eigenvalues ---    0.09757   0.10027   0.10090   0.10217   0.10625
     Eigenvalues ---    0.11199   0.11422   0.11530   0.11916   0.12246
     Eigenvalues ---    0.12791   0.12913   0.13012   0.13020   0.13278
     Eigenvalues ---    0.13731   0.13776   0.13942   0.14195   0.14357
     Eigenvalues ---    0.15808   0.16366   0.16620   0.16677   0.16772
     Eigenvalues ---    0.16886   0.17203   0.17319   0.17634   0.17713
     Eigenvalues ---    0.18629   0.19112   0.20285   0.20634   0.20691
     Eigenvalues ---    0.20762   0.21783   0.22002   0.23133   0.24724
     Eigenvalues ---    0.26455   0.27611   0.29720   0.29803   0.30110
     Eigenvalues ---    0.30266   0.31599   0.32447   0.34280   0.34784
     Eigenvalues ---    0.35040   0.36783   0.39317   0.41790   0.42353
     Eigenvalues ---    0.44059   0.44817   0.45080   0.48439   0.49277
     Eigenvalues ---    0.50301   0.56090   0.57449   0.59199   0.62586
     Eigenvalues ---    0.65109   0.65775   0.67971   0.68272   0.69223
     Eigenvalues ---    0.70664   0.75512   0.78150   0.78397   0.79624
     Eigenvalues ---    0.82217   0.82980   0.83921   0.85769   0.87098
     Eigenvalues ---    0.88973   0.89490   0.90496   0.91125   0.92399
     Eigenvalues ---    0.93427   0.93997   0.94436   0.94538   0.95426
     Eigenvalues ---    0.96025   0.97469   0.99743   0.99778   1.00235
     Eigenvalues ---    1.01216   1.02085   1.04074   1.04411   1.05488
     Eigenvalues ---    1.05941   1.06219   1.06456   1.07958   1.08801
     Eigenvalues ---    1.10103   1.14143   1.16303   1.18087   1.20232
     Eigenvalues ---    1.23170   1.24247   1.27974   1.36883   1.39501
     Eigenvalues ---    1.48345   1.54016   1.56946   1.59401   1.60482
     Eigenvalues ---    1.70809   1.75535   1.81624   2.11996   2.28708
 Eigenvalue     1 is  -5.55D-16 should be greater than     0.000000 Eigenvector:
                          X59       X60       X58       X49       X48
   1                    0.15659   0.15659   0.15659   0.15659   0.15659
                          X50       X38       X43       X44       X39
   1                    0.15659   0.15659   0.15659   0.15659   0.15659
 Eigenvalue     2 is  -4.44D-16 should be greater than     0.000000 Eigenvector:
                          X56       X70       X53       X57       X54
   1                    0.19504   0.19504   0.19504   0.19504   0.19504
                          X55       X71       X68       X51       X65
   1                    0.19504   0.19504   0.19504   0.19504   0.19504
 Eigenvalue     3 is   2.22D-16 Eigenvector:
                          Y46       Y47       Y41       Y42       Y45
   1                    0.19187   0.19187   0.19187   0.19187   0.19187
                          Y40       Y43       Y48       Y39       Y38
   1                    0.19187   0.19187   0.19187   0.19187   0.19187
 Eigenvalue     4 is   3.19D-09 Eigenvector:
                          Z44       Z49       Z50       Z45       Z39
   1                    0.27062   0.24805   0.24438   0.21838   0.20181
                          X59       Z60       Z58       Z40       X60
   1                   -0.19879   0.18785   0.17310   0.17240  -0.16672
 Eigenvalue     5 is   7.45D-09 Eigenvector:
                          Z47       X45       X46       Z48       X40
   1                    0.24541  -0.24425  -0.24250   0.18954  -0.18676
                          X41       Z42       Y49       Z43       Y60
   1                   -0.18607   0.17099  -0.14986   0.13963  -0.13841
 Eigenvalue     6 is   9.18D-09 Eigenvector:
                          Z54       Z53       Z52       Z51       Z69
   1                    0.45017   0.34478   0.31838   0.26066  -0.25678
                          Z70       Z71       Y66       Z68       Y69
   1                   -0.23731  -0.20551  -0.18932  -0.18798  -0.18415
 Eigenvalue     7 is   2.50D-08 Eigenvector:
                          X54       X69       X53       X70       Y54
   1                    0.41233  -0.34704   0.34597  -0.25666  -0.23743
                          X68       Y71       X51       X52       X71
   1                   -0.22633   0.21977   0.20512   0.18623  -0.17490
 Eigenvalue     8 is   5.12D-08 Eigenvector:
                          X50       Y47       Y44       X49       Y60
   1                    0.36010  -0.35822   0.27571   0.26618   0.24406
                          Y48       Y42       X47       Y49       Y46
   1                   -0.21907  -0.21721  -0.21146   0.20417  -0.17392
 Eigenvalue     9 is   8.52D-08 Eigenvector:
                          Y45       Y59       Y46       X45       Y40
   1                    0.30689  -0.24316   0.23406   0.20710   0.20042
                          Y48       X46       Z50       Y41       Y49
   1                   -0.17689   0.16804  -0.16141   0.15977  -0.14351
 Eigenvalue    10 is   1.13D-07 Eigenvector:
                          X59       X60       X48       X58       Y73
   1                    0.20470   0.19108   0.17038   0.15276   0.15040
                          Y48       Y77       Y74       Y72       Y59
   1                    0.15023   0.13650   0.13575   0.13042   0.12831
 Eigenvalue    11 is   1.84D-07 Eigenvector:
                          Y64       Y62       Y61       Y63       Z76
   1                    0.25130   0.20848   0.20288   0.19008  -0.15212
                          Y37       Y7        Y16       Z60       Z77
   1                    0.15173  -0.14261  -0.14119   0.14080  -0.14039
 Eigenvalue    12 is   3.78D-06 Eigenvector:
                          X52       X66       X56       Z67       Z57
   1                    0.34027   0.33376  -0.31265  -0.29721   0.28190
                          X70       Z71       Y52       Y67       Y57
   1                   -0.27224   0.25534  -0.19875  -0.19535   0.18857
 Quadratic step=1.952D+01 exceeds max=3.000D-01 adjusted using Lamda=-7.405D-03.
 Angle between NR and scaled steps=  24.54 degrees.
 Angle between quadratic step and forces=  18.03 degrees.
 Linear search not attempted -- first point.
 B after Tr=     0.000331    0.001201   -0.000352
         Rot=    1.000000    0.000099   -0.000006   -0.000004 Ang=   0.01 deg.
 Variable       Old X    -DE/DX   Delta X   Delta X   Delta X     New X
                                 (Linear)    (Quad)   (Total)
    X1       -9.35649   0.00003   0.00000   0.00039   0.00071  -9.35578
    Y1        0.45176  -0.00011   0.00000  -0.00410  -0.00309   0.44867
    Z1       -0.57620   0.00001   0.00000   0.01721   0.01688  -0.55932
    X2       -9.64144   0.00012   0.00000   0.00621   0.00653  -9.63491
    Y2       -1.92561  -0.00005   0.00000  -0.00293  -0.00224  -1.92785
    Z2       -2.20234   0.00015   0.00000   0.01470   0.01484  -2.18750
    X3       -7.08987   0.00009   0.00000   0.00718   0.00750  -7.08238
    Y3       -2.72192   0.00001   0.00000   0.00596   0.00644  -2.71548
    Z3       -3.32220   0.00004   0.00000   0.01137   0.01163  -3.31056
    X4       -5.21939   0.00006   0.00000   0.00941   0.00975  -5.20964
    Y4       -3.15790   0.00019   0.00000   0.00900   0.00993  -3.14798
    Z4       -1.17240   0.00018   0.00000   0.00996   0.01029  -1.16212
    X5       -4.83390  -0.00001   0.00000   0.00606   0.00640  -4.82750
    Y5       -0.71657   0.00017   0.00000   0.00960   0.01084  -0.70572
    Z5        0.41984  -0.00005   0.00000   0.00982   0.00966   0.42951
    X6       -7.39917   0.00005   0.00000   0.00518   0.00553  -7.39364
    Y6        0.07621   0.00010   0.00000   0.00122   0.00267   0.07888
    Z6        1.52321   0.00017   0.00000   0.01399   0.01370   1.53692
    X7       -7.27932   0.00008   0.00000   0.01094   0.01126  -7.26806
    Y7       -4.43111   0.00007   0.00000   0.00668   0.00693  -4.42417
    Z7       -4.47684   0.00007   0.00000   0.00975   0.01036  -4.46647
    X8      -10.39236   0.00009   0.00000   0.01179   0.01214 -10.38022
    Y8       -3.47466  -0.00004   0.00000  -0.00661  -0.00570  -3.48036
    Z8       -1.04438   0.00008   0.00000   0.01331   0.01377  -1.03061
    X9      -10.99717   0.00003   0.00000   0.00378   0.00408 -10.99309
    Y9       -1.60279  -0.00002   0.00000  -0.00481  -0.00445  -1.60724
    Z9       -3.73211   0.00014   0.00000   0.01649   0.01658  -3.71554
   X10       -8.74272  -0.00008   0.00000  -0.00821  -0.00792  -8.75064
   Y10        2.02443   0.00003   0.00000   0.00019   0.00096   2.02539
   Z10       -1.78653   0.00015   0.00000   0.01839   0.01774  -1.76879
   X11      -11.18776  -0.00001   0.00000  -0.00031   0.00001 -11.18775
   Y11        0.98506  -0.00010   0.00000  -0.01244  -0.01129   0.97377
   Z11        0.22722   0.00018   0.00000   0.02124   0.02083   0.24805
   X12       -5.93183   0.00013   0.00000   0.01235   0.01272  -5.91911
   Y12       -4.64984   0.00004   0.00000   0.00842   0.00959  -4.64025
   Z12        0.06782   0.00016   0.00000   0.01123   0.01186   0.07968
   X13       -4.30482  -0.00003   0.00000   0.00147   0.00179  -4.30303
   Y13        0.75345  -0.00008   0.00000   0.01133   0.01231   0.76576
   Z13       -0.95282   0.00021   0.00000   0.01090   0.01044  -0.94237
   X14       -8.04324   0.00011   0.00000   0.01238   0.01276  -8.03048
   Y14       -1.36455  -0.00008   0.00000  -0.00223  -0.00053  -1.36508
   Z14        2.86857   0.00015   0.00000   0.01406   0.01407   2.88264
   X15       -7.11733   0.00002   0.00000   0.00121   0.00156  -7.11577
   Y15        1.84263   0.00002   0.00000   0.00125   0.00290   1.84553
   Z15        2.56933   0.00014   0.00000   0.01512   0.01449   2.58382
   X16       -6.42520  -0.00000   0.00000   0.00159   0.00188  -6.42332
   Y16       -1.19064   0.00009   0.00000   0.00923   0.00947  -1.18117
   Z16       -4.55675   0.00007   0.00000   0.01231   0.01227  -4.54448
   X17       -2.69813   0.00008   0.00000   0.00810   0.00845  -2.68969
   Y17       -4.02825   0.00005   0.00000   0.00834   0.00912  -4.01914
   Z17       -2.02488   0.00007   0.00000   0.00637   0.00685  -2.01803
   X18       -1.43844   0.00003   0.00000   0.00704   0.00735  -1.43109
   Y18       -2.77930   0.00003   0.00000   0.00732   0.00774  -2.77155
   Z18       -3.86661  -0.00000   0.00000   0.00493   0.00515  -3.86146
   X19       -1.38343   0.00007   0.00000   0.00752   0.00789  -1.37554
   Y19       -5.57435   0.00005   0.00000   0.00293   0.00403  -5.57032
   Z19       -0.46654   0.00001   0.00000   0.00140   0.00216  -0.46437
   X20        1.11275   0.00007   0.00000   0.00569   0.00600   1.11875
   Y20       -2.99898  -0.00002   0.00000   0.00043   0.00081  -2.99816
   Z20       -4.18317  -0.00001   0.00000  -0.00144  -0.00121  -4.18438
   X21       -2.56321   0.00007   0.00000   0.00765   0.00794  -2.55526
   Y21       -1.54982   0.00010   0.00000   0.01164   0.01182  -1.53800
   Z21       -5.05275   0.00007   0.00000   0.00885   0.00883  -5.04392
   X22        1.17144   0.00003   0.00000   0.00603   0.00640   1.17784
   Y22       -5.88291  -0.00004   0.00000  -0.00476  -0.00368  -5.88658
   Z22       -0.65933  -0.00002   0.00000  -0.00560  -0.00479  -0.66412
   X23       -2.46859   0.00006   0.00000   0.00825   0.00865  -2.45994
   Y23       -6.47488   0.00004   0.00000   0.00365   0.00503  -6.46985
   Z23        1.02126   0.00001   0.00000   0.00234   0.00330   1.02457
   X24        2.55784   0.00005   0.00000   0.00572   0.00607   2.56390
   Y24       -4.44923  -0.00007   0.00000  -0.00647  -0.00574  -4.45496
   Z24       -2.44079  -0.00008   0.00000  -0.00721  -0.00671  -2.44750
   X25        2.01112   0.00004   0.00000   0.00507   0.00535   2.01648
   Y25       -1.95745  -0.00001   0.00000  -0.00029  -0.00020  -1.95765
   Z25       -5.69620  -0.00002   0.00000  -0.00233  -0.00231  -5.69851
   X26        2.09590   0.00005   0.00000   0.00598   0.00638   2.10227
   Y26       -7.05970  -0.00008   0.00000  -0.00986  -0.00850  -7.06820
   Z26        0.73102  -0.00008   0.00000  -0.00989  -0.00887   0.72215
   X27        5.09051   0.00008   0.00000   0.00570   0.00604   5.09655
   Y27       -4.43488  -0.00007   0.00000  -0.01367  -0.01291  -4.44779
   Z27       -2.44791  -0.00008   0.00000  -0.01372  -0.01325  -2.46117
   X28        6.50614   0.00006   0.00000   0.00848   0.00886   6.51499
   Y28       -5.49874  -0.00018   0.00000  -0.02297  -0.02178  -5.52052
   Z28       -0.31107  -0.00015   0.00000  -0.02019  -0.01952  -0.33059
   X29        6.26809   0.00004   0.00000   0.00400   0.00439   6.27248
   Y29       -7.55029  -0.00016   0.00000  -0.02266  -0.02145  -7.57174
   Z29       -0.22365  -0.00019   0.00000  -0.02542  -0.02434  -0.24799
   X30        5.80010   0.00012   0.00000   0.01508   0.01546   5.81556
   Y30       -4.66052  -0.00020   0.00000  -0.02641  -0.02488  -4.68539
   Z30        1.45307  -0.00011   0.00000  -0.01593  -0.01542   1.43765
   X31        6.54711   0.00006   0.00000   0.00722   0.00752   6.55463
   Y31       -2.46095  -0.00010   0.00000  -0.01426  -0.01375  -2.47470
   Z31       -3.75543  -0.00012   0.00000  -0.01281  -0.01275  -3.76818
   X32        7.01378   0.00000   0.00000   0.00099   0.00128   7.01505
   Y32       -3.07449  -0.00009   0.00000  -0.01108  -0.01094  -3.08543
   Z32       -5.67936  -0.00012   0.00000  -0.01535  -0.01517  -5.69453
   X33        5.44543   0.00007   0.00000   0.01119   0.01148   5.45691
   Y33       -0.71492  -0.00006   0.00000  -0.01136  -0.01087  -0.72580
   Z33       -3.83000  -0.00004   0.00000  -0.00602  -0.00629  -3.83629
   X34       -2.71132   0.00017   0.00000   0.00606   0.00643  -2.70490
   Y34       -0.85930   0.00019   0.00000   0.01250   0.01411  -0.84519
   Z34        2.13807   0.00005   0.00000   0.00966   0.00951   2.14758
   X35       -2.76856   0.00001   0.00000   0.00600   0.00641  -2.76215
   Y35       -2.66799   0.00009   0.00000  -0.00026   0.00182  -2.66617
   Z35        4.51250  -0.00009   0.00000  -0.00031  -0.00010   4.51239
   X36       -4.81476   0.00005   0.00000   0.01400   0.01442  -4.80033
   Y36       -4.57295   0.00003   0.00000  -0.00816  -0.00612  -4.57907
   Z36        4.44592  -0.00019   0.00000  -0.02007  -0.01945   4.42647
   X37       -0.19876   0.00011   0.00000   0.00900   0.00941  -0.18935
   Y37       -3.73576   0.00005   0.00000   0.00818   0.01036  -3.72540
   Z37        4.92327   0.00004   0.00000   0.00335   0.00374   4.92700
   X38       -1.75556  -0.00021   0.00000  -0.03595  -0.03566  -1.79122
   Y38        5.06730   0.00027   0.00000   0.02857   0.02978   5.09708
   Z38        0.16399  -0.00002   0.00000  -0.00896  -0.01030   0.15369
   X39       -0.56508  -0.00013   0.00000  -0.01509  -0.01481  -0.57990
   Y39        3.75541   0.00019   0.00000   0.02379   0.02463   3.78005
   Z39       -1.80093  -0.00006   0.00000   0.00694   0.00584  -1.79508
   X40       -1.65714   0.00014   0.00000   0.00397   0.00422  -1.65292
   Y40        3.70846  -0.00001   0.00000   0.00580   0.00615   3.71460
   Z40       -4.19583   0.00008   0.00000  -0.00106  -0.00213  -4.19797
   X41       -3.97196  -0.00002   0.00000   0.00323   0.00347  -3.96849
   Y41        4.89057  -0.00002   0.00000  -0.00492  -0.00468   4.88590
   Z41       -4.64296  -0.00021   0.00000  -0.02593  -0.02721  -4.67017
   X42       -5.19112  -0.00010   0.00000  -0.01653  -0.01628  -5.20740
   Y42        6.13874   0.00001   0.00000   0.00219   0.00281   6.14155
   Z42       -2.67256  -0.00033   0.00000  -0.04265  -0.04416  -2.71673
   X43       -4.07620  -0.00036   0.00000  -0.03660  -0.03632  -4.11252
   Y43        6.22746   0.00020   0.00000   0.01823   0.01933   6.24679
   Z43       -0.28945  -0.00034   0.00000  -0.03382  -0.03536  -0.32481
   X44        1.16806  -0.00018   0.00000  -0.01473  -0.01444   1.15362
   Y44        2.71357   0.00026   0.00000   0.03197   0.03290   2.74647
   Z44       -1.42066   0.00021   0.00000   0.02663   0.02572  -1.39494
   X45       -0.69780   0.00013   0.00000   0.01927   0.01951  -0.67829
   Y45        2.73362  -0.00002   0.00000  -0.00009  -0.00003   2.73360
   Z45       -5.73048   0.00010   0.00000   0.01225   0.01137  -5.71912
   X46       -4.82194   0.00013   0.00000   0.01806   0.01827  -4.80367
   Y46        4.83974  -0.00015   0.00000  -0.01853  -0.01867   4.82107
   Z46       -6.51018  -0.00025   0.00000  -0.03232  -0.03357  -6.54375
   X47       -7.00741  -0.00011   0.00000  -0.01647  -0.01624  -7.02365
   Y47        7.04240  -0.00001   0.00000  -0.00457  -0.00404   7.03837
   Z47       -2.98265  -0.00050   0.00000  -0.06280  -0.06446  -3.04711
   X48       -5.02578  -0.00039   0.00000  -0.05217  -0.05189  -5.07767
   Y48        7.19458   0.00025   0.00000   0.02434   0.02574   7.22032
   Z48        1.25565  -0.00039   0.00000  -0.04720  -0.04893   1.20672
   X49        0.48891  -0.00008   0.00000  -0.01304  -0.01270   0.47621
   Y49        2.89967   0.00034   0.00000   0.06297   0.06488   2.96455
   Z49        3.52651  -0.00022   0.00000  -0.00179  -0.00274   3.52377
   X50       -0.63629   0.00023   0.00000   0.01720   0.01755  -0.61874
   Y50        1.50798   0.00056   0.00000   0.04288   0.04465   1.55263
   Z50        2.88807   0.00007   0.00000  -0.00954  -0.01019   2.87788
   X51        4.47030   0.00015   0.00000   0.00711   0.00747   4.47777
   Y51        0.39845  -0.00011   0.00000  -0.00899  -0.00723   0.39122
   Z51        2.58344   0.00002   0.00000   0.01492   0.01444   2.59788
   X52        3.78603  -0.00002   0.00000  -0.00288  -0.00254   3.78349
   Y52       -0.30343  -0.00003   0.00000  -0.00494  -0.00360  -0.30704
   Z52        0.49970   0.00021   0.00000   0.01692   0.01659   0.51629
   X53        4.02648  -0.00018   0.00000  -0.00406  -0.00367   4.02281
   Y53       -0.87570   0.00011   0.00000  -0.00129   0.00088  -0.87482
   Z53        4.69108   0.00013   0.00000   0.01719   0.01696   4.70804
   X54        2.59518  -0.00010   0.00000  -0.01450  -0.01410   2.58108
   Y54       -2.07447   0.00008   0.00000   0.01077   0.01288  -2.06159
   Z54        4.44953   0.00013   0.00000   0.01912   0.01915   4.46868
   X55        6.02603   0.00021   0.00000   0.02502   0.02536   6.05140
   Y55        2.75216  -0.00012   0.00000  -0.01994  -0.01809   2.73407
   Z55        3.02095   0.00011   0.00000   0.01077   0.00981   3.03077
   X56        5.11989   0.00041   0.00000   0.04451   0.04486   5.16475
   Y56        3.78083  -0.00013   0.00000  -0.02151  -0.01935   3.76148
   Z56        4.56951   0.00017   0.00000   0.02313   0.02197   4.59148
   X57        7.90081   0.00021   0.00000   0.02807   0.02842   7.92923
   Y57        2.17553  -0.00029   0.00000  -0.03296  -0.03096   2.14457
   Z57        3.70392  -0.00014   0.00000  -0.00868  -0.00954   3.69438
   X58       -0.57070  -0.00042   0.00000  -0.05610  -0.05579  -0.62648
   Y58        5.19542   0.00021   0.00000   0.04349   0.04523   5.24065
   Z58        2.76484   0.00001   0.00000  -0.00040  -0.00179   2.76305
   X59       -1.99774  -0.00058   0.00000  -0.07835  -0.07803  -2.07577
   Y59        5.87686  -0.00005   0.00000   0.00923   0.01123   5.88809
   Z59        4.12100  -0.00005   0.00000  -0.00678  -0.00828   4.11272
   X60        0.96289  -0.00071   0.00000  -0.08489  -0.08459   0.87830
   Y60        6.59994   0.00063   0.00000   0.07493   0.07669   6.67664
   Z60        2.75902   0.00011   0.00000   0.01394   0.01225   2.77127
   X61       -3.28164  -0.00009   0.00000  -0.01507  -0.01465  -3.29630
   Y61       -0.70128  -0.00011   0.00000  -0.01912  -0.01652  -0.71780
   Z61        7.21809   0.00010   0.00000   0.00959   0.00942   7.22752
   X62       -1.80732  -0.00023   0.00000  -0.02567  -0.02527  -1.83258
   Y62        0.74442  -0.00002   0.00000  -0.00810  -0.00548   0.73894
   Z62        7.19041   0.00018   0.00000   0.02267   0.02219   7.21260
   X63       -5.14862  -0.00019   0.00000  -0.02097  -0.02056  -5.16918
   Y63        0.16010  -0.00025   0.00000  -0.03186  -0.02931   0.13079
   Z63        7.04841   0.00008   0.00000   0.00921   0.00889   7.05730
   X64       -3.15618  -0.00009   0.00000  -0.01215  -0.01170  -3.16788
   Y64       -1.85541  -0.00021   0.00000  -0.02838  -0.02544  -1.88085
   Z64        8.92128   0.00002   0.00000   0.00314   0.00319   8.92448
   X65        6.24171   0.00009   0.00000   0.01060   0.01090   6.25261
   Y65        4.39299  -0.00006   0.00000  -0.00987  -0.00848   4.38451
   Z65        0.66418   0.00010   0.00000   0.01652   0.01523   0.67941
   X66        6.97725   0.00009   0.00000   0.00803   0.00833   6.98557
   Y66        3.25851   0.00000   0.00000  -0.00030   0.00079   3.25930
   Z66       -0.90648   0.00006   0.00000   0.00837   0.00729  -0.89919
   X67        4.34280   0.00006   0.00000   0.00592   0.00621   4.34901
   Y67        4.98795  -0.00012   0.00000  -0.01444  -0.01318   4.97478
   Z67        0.09020   0.00022   0.00000   0.02756   0.02617   0.11637
   X68        7.91512  -0.00000   0.00000   0.00142   0.00170   7.91682
   Y68        6.70292  -0.00001   0.00000  -0.00386  -0.00237   6.70054
   Z68        1.08395   0.00015   0.00000   0.01998   0.01821   1.10216
   X69        8.07862  -0.00013   0.00000  -0.01376  -0.01350   8.06512
   Y69        7.83528   0.00007   0.00000   0.00624   0.00739   7.84267
   Z69       -0.63767   0.00018   0.00000   0.02517   0.02317  -0.61450
   X70        7.14437  -0.00001   0.00000   0.00226   0.00255   7.14693
   Y70        7.91801  -0.00011   0.00000  -0.01572  -0.01394   7.90406
   Z70        2.57118   0.00021   0.00000   0.03013   0.02813   2.59931
   X71        9.82351   0.00004   0.00000   0.00732   0.00762   9.83113
   Y71        6.14384   0.00007   0.00000   0.00358   0.00519   6.14903
   Z71        1.65929   0.00004   0.00000   0.00739   0.00571   1.66500
   X72        9.22842   0.00006   0.00000   0.00892   0.00928   9.23770
   Y72       -4.70738  -0.00019   0.00000  -0.02788  -0.02677  -4.73415
   Z72       -0.84061  -0.00020   0.00000  -0.02492  -0.02444  -0.86504
   X73       10.35149   0.00010   0.00000   0.01338   0.01376  10.36525
   Y73       -4.61964  -0.00025   0.00000  -0.03487  -0.03341  -4.65305
   Z73        0.88808  -0.00020   0.00000  -0.02746  -0.02701   0.86107
   X74       10.12415   0.00001   0.00000   0.00253   0.00289  10.12704
   Y74       -6.05117  -0.00020   0.00000  -0.02667  -0.02581  -6.07698
   Z74       -2.13343  -0.00022   0.00000  -0.03056  -0.02983  -2.16325
   X75        8.90785   0.00006   0.00000   0.01171   0.01204   8.91989
   Y75       -2.13042  -0.00020   0.00000  -0.02386  -0.02301  -2.15343
   Z75       -2.11419  -0.00011   0.00000  -0.01743  -0.01745  -2.13164
   X76        8.52138   0.00014   0.00000   0.01841   0.01874   8.54012
   Y76       -0.69073  -0.00019   0.00000  -0.02668  -0.02554  -0.71627
   Z76       -0.68312  -0.00009   0.00000  -0.01274  -0.01304  -0.69616
   X77       10.55421   0.00007   0.00000   0.01038   0.01069  10.56490
   Y77       -1.54547  -0.00017   0.00000  -0.02467  -0.02401  -1.56949
   Z77       -3.21193  -0.00016   0.00000  -0.01987  -0.02003  -3.23196
         Item               Value     Threshold  Converged?
 Maximum Force            0.000708     0.000450     NO 
 RMS     Force            0.000163     0.000300     YES
 Maximum Displacement     0.084590     0.001800     NO 
 RMS     Displacement     0.019761     0.001200     NO 
 Predicted change in Energy=-6.928734D-04
 GradGradGradGradGradGradGradGradGradGradGradGradGradGradGradGradGradGrad

 Leave Link  103 at Thu Feb  7 23:14:45 2019, MaxMem=   104857600 cpu:              31.2 elap:               1.4
 (Enter /home/xinyan/g16/l9999.exe)
 1\1\GINC-TSE4\Force\RM062X\6-31G(d)\C27H41N3O5S1\STEVETSE\07-Feb-2019\
 0\\#p M062X/6-31G* em=gd3 force int=ultrafine\\Title\\0,1\C,-4.95124,0
 .23906,-0.30491\C,-5.10203,-1.01899,-1.16543\C,-3.7518,-1.44038,-1.758
 03\C,-2.76198,-1.67109,-0.62041\C,-2.55799,-0.37919,0.22217\C,-3.91547
 ,0.04033,0.80605\H,-3.85205,-2.34484,-2.36904\H,-5.4994,-1.83871,-0.55
 266\H,-5.81945,-0.84816,-1.97495\H,-4.62645,1.07128,-0.94539\H,-5.9203
 1,0.52127,0.12024\H,-3.13899,-2.46059,0.03589\H,-2.27801,0.39871,-0.50
 421\H,-4.2563,-0.72209,1.51798\H,-3.76633,0.97508,1.35963\H,-3.40007,-
 0.63006,-2.41133\N,-1.42779,-2.13166,-1.07152\C,-0.76119,-1.47074,-2.0
 4612\C,-0.73208,-2.94982,-0.24688\C,0.58884,-1.58699,-2.21364\H,-1.356
 39,-0.82013,-2.6738\C,0.6199,-3.1131,-0.3489\H,-1.30632,-3.42636,0.540
 43\C,1.35355,-2.35443,-1.29161\H,1.06424,-1.03584,-3.0143\H,1.1091,-3.
 73583,0.38684\N,2.69378,-2.34684,-1.29538\C,3.4429,-2.90981,-0.16461\H
 ,3.31693,-3.99544,-0.11835\H,3.06928,-2.46624,0.76893\C,3.46458,-1.302
 28,-1.98729\H,3.71153,-1.62695,-3.00539\H,2.8816,-0.37832,-2.02675\N,-
 1.43477,-0.45472,1.13142\S,-1.46506,-1.41184,2.38791\O,-2.54786,-2.419
 9,2.35268\O,-0.10518,-1.97688,2.60528\C,-0.929,2.6815,0.08678\C,-0.299
 03,1.98728,-0.95301\C,-0.87692,1.96243,-2.22034\C,-2.10187,2.58798,-2.
 45695\C,-2.74702,3.24848,-1.41426\C,-2.15703,3.29543,-0.15317\H,0.6181
 1,1.43596,-0.75178\H,-0.36926,1.44657,-3.03244\H,-2.55166,2.56108,-3.4
 4504\H,-3.70816,3.72668,-1.57835\H,-2.65953,3.80721,0.66446\O,0.25872,
 1.53444,1.86615\H,-0.33671,0.79799,1.5283\C,2.36558,0.21085,1.3671\O,2
 .00348,-0.16057,0.26443\O,2.13072,-0.4634,2.48241\H,1.37331,-1.09776,2
 .35459\C,3.18884,1.45638,1.59862\H,2.70933,2.00073,2.41808\H,4.18093,1
 .15124,1.96003\C,-0.302,2.7493,1.46309\H,-1.05716,3.1099,2.18074\H,0.5
 0954,3.49254,1.46001\C,-1.73657,-0.3711,3.81965\H,-0.95639,0.39393,3.8
 05\H,-2.72453,0.08472,3.72986\H,-1.67018,-0.98184,4.72094\C,3.30297,2.
 32467,0.35147\H,3.6922,1.72433,-0.47969\H,2.29811,2.63951,0.04773\C,4.
 1885,3.54703,0.5736\H,4.27502,4.14625,-0.33744\H,3.78064,4.19003,1.360
 61\H,5.19838,3.25118,0.87806\C,4.88347,-2.49104,-0.44483\H,5.47777,-2.
 44461,0.46995\H,5.35747,-3.20214,-1.12896\C,4.71383,-1.12737,-1.11878\
 H,4.50932,-0.36552,-0.36149\H,5.58505,-0.81783,-1.69968\\Version=ES64L
 -G16RevA.03\State=1-A\HF=-1991.3871481\RMSD=5.425e-09\RMSF=1.632e-04\D
 ipole=0.6145835,-0.053264,-2.6047518\Quadrupole=10.5639011,-5.3936193,
 -5.1702818,-9.7504096,0.045919,9.3342176\PG=C01 [X(C27H41N3O5S1)]\\@


 THE WORLD IS NOT A HAMBURGER - YOU CAN'T HAVE IT YOUR WAY.
 Job cpu time:       0 days  1 hours 19 minutes 48.0 seconds.
 Elapsed time:       0 days  0 hours  3 minutes 21.5 seconds.
 File lengths (MBytes):  RWF=    216 Int=      0 D2E=      0 Chk=     25 Scr=      1
 Normal termination of Gaussian 16 at Thu Feb  7 23:14:45 2019.
