 Entering Gaussian System, Link 0=g16
 Input=C27N3H41SO5-23.gjf
 Output=C27N3H41SO5-23.log
 Initial command:
 /home/xinyan/g16/l1.exe "/local/home/tmp/Gau-10610.inp" -scrdir="/local/home/tmp/"
 Entering Link 1 = /home/xinyan/g16/l1.exe PID=     10611.
  
 Copyright (c) 1988,1990,1992,1993,1995,1998,2003,2009,2016,
            Gaussian, Inc.  All Rights Reserved.
  
 This is part of the Gaussian(R) 16 program.  It is based on
 the Gaussian(R) 09 system (copyright 2009, Gaussian, Inc.),
 the Gaussian(R) 03 system (copyright 2003, Gaussian, Inc.),
 the Gaussian(R) 98 system (copyright 1998, Gaussian, Inc.),
 the Gaussian(R) 94 system (copyright 1995, Gaussian, Inc.),
 the Gaussian 92(TM) system (copyright 1992, Gaussian, Inc.),
 the Gaussian 90(TM) system (copyright 1990, Gaussian, Inc.),
 the Gaussian 88(TM) system (copyright 1988, Gaussian, Inc.),
 the Gaussian 86(TM) system (copyright 1986, Carnegie Mellon
 University), and the Gaussian 82(TM) system (copyright 1983,
 Carnegie Mellon University). Gaussian is a federally registered
 trademark of Gaussian, Inc.
  
 This software contains proprietary and confidential information,
 including trade secrets, belonging to Gaussian, Inc.
  
 This software is provided under written license and may be
 used, copied, transmitted, or stored only in accord with that
 written license.
  
 The following legend is applicable only to US Government
 contracts under FAR:
  
                    RESTRICTED RIGHTS LEGEND
  
 Use, reproduction and disclosure by the US Government is
 subject to restrictions as set forth in subparagraphs (a)
 and (c) of the Commercial Computer Software - Restricted
 Rights clause in FAR 52.227-19.
  
 Gaussian, Inc.
 340 Quinnipiac St., Bldg. 40, Wallingford CT 06492
  
  
 ---------------------------------------------------------------
 Warning -- This program may not be used in any manner that
 competes with the business of Gaussian, Inc. or will provide
 assistance to any competitor of Gaussian, Inc.  The licensee
 of this program is prohibited from giving any competitor of
 Gaussian, Inc. access to this program.  By using this program,
 the user acknowledges that Gaussian, Inc. is engaged in the
 business of creating and licensing software in the field of
 computational chemistry and represents and warrants to the
 licensee that it is not a competitor of Gaussian, Inc. and that
 it will not use this program in any manner prohibited above.
 ---------------------------------------------------------------
  

 Cite this work as:
 Gaussian 16, Revision A.03,
 M. J. Frisch, G. W. Trucks, H. B. Schlegel, G. E. Scuseria, 
 M. A. Robb, J. R. Cheeseman, G. Scalmani, V. Barone, 
 G. A. Petersson, H. Nakatsuji, X. Li, M. Caricato, A. V. Marenich, 
 J. Bloino, B. G. Janesko, R. Gomperts, B. Mennucci, H. P. Hratchian, 
 J. V. Ortiz, A. F. Izmaylov, J. L. Sonnenberg, D. Williams-Young, 
 F. Ding, F. Lipparini, F. Egidi, J. Goings, B. Peng, A. Petrone, 
 T. Henderson, D. Ranasinghe, V. G. Zakrzewski, J. Gao, N. Rega, 
 G. Zheng, W. Liang, M. Hada, M. Ehara, K. Toyota, R. Fukuda, 
 J. Hasegawa, M. Ishida, T. Nakajima, Y. Honda, O. Kitao, H. Nakai, 
 T. Vreven, K. Throssell, J. A. Montgomery, Jr., J. E. Peralta, 
 F. Ogliaro, M. J. Bearpark, J. J. Heyd, E. N. Brothers, K. N. Kudin, 
 V. N. Staroverov, T. A. Keith, R. Kobayashi, J. Normand, 
 K. Raghavachari, A. P. Rendell, J. C. Burant, S. S. Iyengar, 
 J. Tomasi, M. Cossi, J. M. Millam, M. Klene, C. Adamo, R. Cammi, 
 J. W. Ochterski, R. L. Martin, K. Morokuma, O. Farkas, 
 J. B. Foresman, and D. J. Fox, Gaussian, Inc., Wallingford CT, 2016.
 
 ******************************************
 Gaussian 16:  ES64L-G16RevA.03 25-Dec-2016
                 7-Feb-2019 
 ******************************************
 %nproc=24
 Will use up to   24 processors via shared memory.
 ------------------------------------------
 #p M062X/6-31G* em=gd3 force int=ultrafine
 ------------------------------------------
 1/10=7,30=1,38=1/1,3;
 2/12=2,17=6,18=5,40=1/2;
 3/5=1,6=6,7=1,11=2,25=1,30=1,71=1,74=-55,75=-5,124=31/1,2,3;
 4//1;
 5/5=2,38=5/2;
 6/7=2,8=2,9=2,10=2,28=1/1;
 7/29=1/1,2,3,16;
 1/10=7,30=1/3;
 99//99;
 Leave Link    1 at Thu Feb  7 09:44:35 2019, MaxMem=           0 cpu:               2.5 elap:               0.1
 (Enter /home/xinyan/g16/l101.exe)
 -----
 Title
 -----
 Symbolic Z-matrix:
 Charge =  0 Multiplicity = 1
 C                    -4.97889   0.24555  -0.3999 
 C                    -5.1326   -1.02939  -1.23426 
 C                    -3.783    -1.46582  -1.81702 
 C                    -2.79798  -1.69839  -0.67567 
 C                    -2.61532  -0.40803   0.15962 
 C                    -3.95987   0.0573    0.72713 
 H                    -3.8827   -2.37434  -2.42038 
 H                    -5.53386  -1.83503  -0.60549 
 H                    -5.84824  -0.87148  -2.04711 
 H                    -4.6423    1.0633   -1.05183 
 H                    -5.94663   0.5431    0.01644 
 H                    -3.18313  -2.48639  -0.02029 
 H                    -2.26367   0.36837  -0.53226 
 H                    -4.32554  -0.67795   1.4521 
 H                    -3.79314   1.00264   1.25609 
 H                    -3.41943  -0.66385  -2.47346 
 N                    -1.45986  -2.15233  -1.11057 
 C                    -0.77567  -1.47142  -2.06825 
 C                    -0.76236  -2.96369  -0.27217 
 C                     0.57691  -1.55102  -2.19384 
 H                    -1.36652  -0.83361  -2.71296 
 C                     0.59189  -3.08305  -0.32551 
 H                    -1.34771  -3.47284   0.48561 
 C                     1.33905  -2.28941  -1.23926 
 H                     1.06326  -0.98163  -2.9747 
 H                     1.07721  -3.7008    0.41673 
 N                     2.66602  -2.2493   -1.20566 
 C                     3.40186  -2.76987  -0.04237 
 H                     3.26884  -3.85185   0.04681 
 H                     3.02239  -2.25883   0.85372 
 C                     3.43098  -1.19031  -1.88685 
 H                     3.69837  -1.51676  -2.89964 
 H                     2.83001  -0.27903  -1.91906 
 N                    -1.53641  -0.53579   1.12287 
 S                    -1.55709  -1.43553   2.48262 
 O                    -2.77884  -2.24238   2.44839 
 O                    -0.27544  -2.12834   2.61723 
 C                    -0.683     2.44256   0.12172 
 C                    -0.17282   1.85085  -1.04176 
 C                    -0.88252   1.93665  -2.23914 
 C                    -2.11556   2.5865   -2.29502 
 C                    -2.63554   3.16257  -1.13737 
 C                    -1.91915   3.09165   0.05704 
 H                     0.75645   1.28515  -0.96627 
 H                    -0.46477   1.49378  -3.14128 
 H                    -2.66324   2.64999  -3.23122 
 H                    -3.59619   3.66942  -1.16453 
 H                    -2.33019   3.5456    0.95663 
 O                     0.52278   1.1203    1.83157 
 H                    -0.66563   0.01604   1.03405 
 C                     1.91476   0.51446   1.36691 
 O                     1.79248  -0.02885   0.20776 
 O                     2.12696  -0.38004   2.43707 
 H                     1.44639  -1.06996   2.33462 
 C                     2.97333   1.62276   1.52404 
 H                     2.71757   2.2739    2.36942 
 H                     3.90306   1.11286   1.80845 
 C                     0.07886   2.38856   1.4415 
 H                    -0.59967   2.75284   2.22859 
 H                     0.91059   3.107     1.4062 
 C                    -1.62226  -0.25305   3.80998 
 H                    -0.74465   0.38746   3.67682 
 H                    -2.55219   0.31133   3.72619 
 H                    -1.57707  -0.80105   4.75244 
 C                     3.22515   2.43532   0.25606 
 H                     3.55977   1.75569  -0.53591 
 H                     2.29391   2.87611  -0.11916 
 C                     4.25677   3.53845   0.47968 
 H                     4.45869   4.09877  -0.43849 
 H                     3.90897   4.25027   1.23679 
 H                     5.20503   3.12061   0.83586 
 C                     4.84204  -2.36461  -0.33295 
 H                     5.44323  -2.32439   0.57725 
 H                     5.30585  -3.0743   -1.02731 
 C                     4.65655  -0.99711  -0.9916 
 H                     4.39359  -0.26381  -0.22402 
 H                     5.53105  -0.65215  -1.54747 
 
 ITRead=  0  0  0  0  0  0  0  0  0  0  0  0  0  0  0  0  0  0  0  0
 ITRead=  0  0  0  0  0  0  0  0  0  0  0  0  0  0  0  0  0  0  0  0
 ITRead=  0  0  0  0  0  0  0  0  0  0  0  0  0  0  0  0  0  0  0  0
 ITRead=  0  0  0  0  0  0  0  0  0  0  0  0  0  0  0  0  0
 MicOpt= -1 -1 -1 -1 -1 -1 -1 -1 -1 -1 -1 -1 -1 -1 -1 -1 -1 -1 -1 -1
 MicOpt= -1 -1 -1 -1 -1 -1 -1 -1 -1 -1 -1 -1 -1 -1 -1 -1 -1 -1 -1 -1
 MicOpt= -1 -1 -1 -1 -1 -1 -1 -1 -1 -1 -1 -1 -1 -1 -1 -1 -1 -1 -1 -1
 MicOpt= -1 -1 -1 -1 -1 -1 -1 -1 -1 -1 -1 -1 -1 -1 -1 -1 -1
 NAtoms=     77 NQM=       77 NQMF=       0 NMMI=      0 NMMIF=      0
                NMic=       0 NMicF=      0.
                    Isotopes and Nuclear Properties:
 (Nuclear quadrupole moments (NQMom) in fm**2, nuclear magnetic moments (NMagM)
  in nuclear magnetons)

  Atom         1           2           3           4           5           6           7           8           9          10
 IAtWgt=          12          12          12          12          12          12           1           1           1           1
 AtmWgt=  12.0000000  12.0000000  12.0000000  12.0000000  12.0000000  12.0000000   1.0078250   1.0078250   1.0078250   1.0078250
 NucSpn=           0           0           0           0           0           0           1           1           1           1
 AtZEff=  -0.0000000  -0.0000000  -0.0000000  -0.0000000  -0.0000000  -0.0000000  -0.0000000  -0.0000000  -0.0000000  -0.0000000
 NQMom=    0.0000000   0.0000000   0.0000000   0.0000000   0.0000000   0.0000000   0.0000000   0.0000000   0.0000000   0.0000000
 NMagM=    0.0000000   0.0000000   0.0000000   0.0000000   0.0000000   0.0000000   2.7928460   2.7928460   2.7928460   2.7928460
 AtZNuc=   6.0000000   6.0000000   6.0000000   6.0000000   6.0000000   6.0000000   1.0000000   1.0000000   1.0000000   1.0000000

  Atom        11          12          13          14          15          16          17          18          19          20
 IAtWgt=           1           1           1           1           1           1          14          12          12          12
 AtmWgt=   1.0078250   1.0078250   1.0078250   1.0078250   1.0078250   1.0078250  14.0030740  12.0000000  12.0000000  12.0000000
 NucSpn=           1           1           1           1           1           1           2           0           0           0
 AtZEff=  -0.0000000  -0.0000000  -0.0000000  -0.0000000  -0.0000000  -0.0000000  -0.0000000  -0.0000000  -0.0000000  -0.0000000
 NQMom=    0.0000000   0.0000000   0.0000000   0.0000000   0.0000000   0.0000000   2.0440000   0.0000000   0.0000000   0.0000000
 NMagM=    2.7928460   2.7928460   2.7928460   2.7928460   2.7928460   2.7928460   0.4037610   0.0000000   0.0000000   0.0000000
 AtZNuc=   1.0000000   1.0000000   1.0000000   1.0000000   1.0000000   1.0000000   7.0000000   6.0000000   6.0000000   6.0000000

  Atom        21          22          23          24          25          26          27          28          29          30
 IAtWgt=           1          12           1          12           1           1          14          12           1           1
 AtmWgt=   1.0078250  12.0000000   1.0078250  12.0000000   1.0078250   1.0078250  14.0030740  12.0000000   1.0078250   1.0078250
 NucSpn=           1           0           1           0           1           1           2           0           1           1
 AtZEff=  -0.0000000  -0.0000000  -0.0000000  -0.0000000  -0.0000000  -0.0000000  -0.0000000  -0.0000000  -0.0000000  -0.0000000
 NQMom=    0.0000000   0.0000000   0.0000000   0.0000000   0.0000000   0.0000000   2.0440000   0.0000000   0.0000000   0.0000000
 NMagM=    2.7928460   0.0000000   2.7928460   0.0000000   2.7928460   2.7928460   0.4037610   0.0000000   2.7928460   2.7928460
 AtZNuc=   1.0000000   6.0000000   1.0000000   6.0000000   1.0000000   1.0000000   7.0000000   6.0000000   1.0000000   1.0000000

  Atom        31          32          33          34          35          36          37          38          39          40
 IAtWgt=          12           1           1          14          32          16          16          12          12          12
 AtmWgt=  12.0000000   1.0078250   1.0078250  14.0030740  31.9720718  15.9949146  15.9949146  12.0000000  12.0000000  12.0000000
 NucSpn=           0           1           1           2           0           0           0           0           0           0
 AtZEff=  -0.0000000  -0.0000000  -0.0000000  -0.0000000  -0.0000000  -0.0000000  -0.0000000  -0.0000000  -0.0000000  -0.0000000
 NQMom=    0.0000000   0.0000000   0.0000000   2.0440000   0.0000000   0.0000000   0.0000000   0.0000000   0.0000000   0.0000000
 NMagM=    0.0000000   2.7928460   2.7928460   0.4037610   0.0000000   0.0000000   0.0000000   0.0000000   0.0000000   0.0000000
 AtZNuc=   6.0000000   1.0000000   1.0000000   7.0000000  16.0000000   8.0000000   8.0000000   6.0000000   6.0000000   6.0000000

  Atom        41          42          43          44          45          46          47          48          49          50
 IAtWgt=          12          12          12           1           1           1           1           1          16           1
 AtmWgt=  12.0000000  12.0000000  12.0000000   1.0078250   1.0078250   1.0078250   1.0078250   1.0078250  15.9949146   1.0078250
 NucSpn=           0           0           0           1           1           1           1           1           0           1
 AtZEff=  -0.0000000  -0.0000000  -0.0000000  -0.0000000  -0.0000000  -0.0000000  -0.0000000  -0.0000000  -0.0000000  -0.0000000
 NQMom=    0.0000000   0.0000000   0.0000000   0.0000000   0.0000000   0.0000000   0.0000000   0.0000000   0.0000000   0.0000000
 NMagM=    0.0000000   0.0000000   0.0000000   2.7928460   2.7928460   2.7928460   2.7928460   2.7928460   0.0000000   2.7928460
 AtZNuc=   6.0000000   6.0000000   6.0000000   1.0000000   1.0000000   1.0000000   1.0000000   1.0000000   8.0000000   1.0000000

  Atom        51          52          53          54          55          56          57          58          59          60
 IAtWgt=          12          16          16           1          12           1           1          12           1           1
 AtmWgt=  12.0000000  15.9949146  15.9949146   1.0078250  12.0000000   1.0078250   1.0078250  12.0000000   1.0078250   1.0078250
 NucSpn=           0           0           0           1           0           1           1           0           1           1
 AtZEff=  -0.0000000  -0.0000000  -0.0000000  -0.0000000  -0.0000000  -0.0000000  -0.0000000  -0.0000000  -0.0000000  -0.0000000
 NQMom=    0.0000000   0.0000000   0.0000000   0.0000000   0.0000000   0.0000000   0.0000000   0.0000000   0.0000000   0.0000000
 NMagM=    0.0000000   0.0000000   0.0000000   2.7928460   0.0000000   2.7928460   2.7928460   0.0000000   2.7928460   2.7928460
 AtZNuc=   6.0000000   8.0000000   8.0000000   1.0000000   6.0000000   1.0000000   1.0000000   6.0000000   1.0000000   1.0000000

  Atom        61          62          63          64          65          66          67          68          69          70
 IAtWgt=          12           1           1           1          12           1           1          12           1           1
 AtmWgt=  12.0000000   1.0078250   1.0078250   1.0078250  12.0000000   1.0078250   1.0078250  12.0000000   1.0078250   1.0078250
 NucSpn=           0           1           1           1           0           1           1           0           1           1
 AtZEff=  -0.0000000  -0.0000000  -0.0000000  -0.0000000  -0.0000000  -0.0000000  -0.0000000  -0.0000000  -0.0000000  -0.0000000
 NQMom=    0.0000000   0.0000000   0.0000000   0.0000000   0.0000000   0.0000000   0.0000000   0.0000000   0.0000000   0.0000000
 NMagM=    0.0000000   2.7928460   2.7928460   2.7928460   0.0000000   2.7928460   2.7928460   0.0000000   2.7928460   2.7928460
 AtZNuc=   6.0000000   1.0000000   1.0000000   1.0000000   6.0000000   1.0000000   1.0000000   6.0000000   1.0000000   1.0000000

  Atom        71          72          73          74          75          76          77
 IAtWgt=           1          12           1           1          12           1           1
 AtmWgt=   1.0078250  12.0000000   1.0078250   1.0078250  12.0000000   1.0078250   1.0078250
 NucSpn=           1           0           1           1           0           1           1
 AtZEff=  -0.0000000  -0.0000000  -0.0000000  -0.0000000  -0.0000000  -0.0000000  -0.0000000
 NQMom=    0.0000000   0.0000000   0.0000000   0.0000000   0.0000000   0.0000000   0.0000000
 NMagM=    2.7928460   0.0000000   2.7928460   2.7928460   0.0000000   2.7928460   2.7928460
 AtZNuc=   1.0000000   6.0000000   1.0000000   1.0000000   6.0000000   1.0000000   1.0000000
 Leave Link  101 at Thu Feb  7 09:44:35 2019, MaxMem=   104857600 cpu:               5.7 elap:               0.3
 (Enter /home/xinyan/g16/l103.exe)

 GradGradGradGradGradGradGradGradGradGradGradGradGradGradGradGradGradGrad
 Berny optimization.
 Initialization pass.
 Trust Radius=3.00D-01 FncErr=1.00D-07 GrdErr=1.00D-07 EigMax=2.50D+02 EigMin=1.00D-04
 Number of steps in this run=      2 maximum allowed number of steps=      2.
 GradGradGradGradGradGradGradGradGradGradGradGradGradGradGradGradGradGrad

 Leave Link  103 at Thu Feb  7 09:44:35 2019, MaxMem=   104857600 cpu:               1.6 elap:               0.1
 (Enter /home/xinyan/g16/l202.exe)
 Stoichiometry    C27H41N3O5S
 Framework group  C1[X(C27H41N3O5S)]
 Deg. of freedom   225
 Full point group                 C1      NOp   1
 Largest Abelian subgroup         C1      NOp   1
 Largest concise Abelian subgroup C1      NOp   1
                         Standard orientation:                         
 ---------------------------------------------------------------------
 Center     Atomic      Atomic             Coordinates (Angstroms)
 Number     Number       Type             X           Y           Z
 ---------------------------------------------------------------------
      1          6           0       -4.856968    0.533263   -0.536434
      2          6           0       -5.032131   -0.748261   -1.356355
      3          6           0       -3.691974   -1.207698   -1.943208
      4          6           0       -2.702443   -1.440755   -0.805866
      5          6           0       -2.498133   -0.144168    0.014635
      6          6           0       -3.832980    0.343943    0.585903
      7          1           0       -3.807020   -2.121126   -2.536341
      8          1           0       -5.439298   -1.542191   -0.716584
      9          1           0       -5.751079   -0.589826   -2.166178
     10          1           0       -4.514466    1.339875   -1.199073
     11          1           0       -5.818140    0.847297   -0.116998
     12          1           0       -3.093104   -2.216973   -0.139776
     13          1           0       -2.141354    0.620494   -0.687614
     14          1           0       -4.203044   -0.379053    1.320898
     15          1           0       -3.650939    1.292567    1.103823
     16          1           0       -3.322722   -0.417251   -2.610365
     17          7           0       -1.373009   -1.916015   -1.244612
     18          6           0       -0.686671   -1.253787   -2.213787
     19          6           0       -0.680215   -2.727319   -0.402265
     20          6           0        0.663948   -1.351718   -2.347270
     21          1           0       -1.273723   -0.615336   -2.861326
     22          6           0        0.672052   -2.864273   -0.463096
     23          1           0       -1.266889   -3.221137    0.364583
     24          6           0        1.423055   -2.089665   -1.389935
     25          1           0        1.152235   -0.796662   -3.137189
     26          1           0        1.154479   -3.480322    0.282437
     27          7           0        2.750616   -2.065922   -1.365330
     28          6           0        3.487530   -2.583574   -0.201418
     29          1           0        3.341559   -3.662805   -0.100028
     30          1           0        3.120405   -2.058490    0.691691
     31          6           0        3.524274   -1.023802   -2.062527
     32          1           0        3.780873   -1.364124   -3.073540
     33          1           0        2.934566   -0.105411   -2.100418
     34          7           0       -1.414582   -0.275466    0.972183
     35         16           0       -1.437567   -1.160663    2.341408
     36          8           0       -2.669527   -1.952376    2.323543
     37          8           0       -0.163836   -1.868119    2.475001
     38          6           0       -0.530552    2.681312   -0.065668
     39          6           0       -0.035503    2.071138   -1.226144
     40          6           0       -0.751950    2.153394   -2.419749
     41          6           0       -1.977095    2.818103   -2.474481
     42          6           0       -2.482177    3.412702   -1.319607
     43          6           0       -1.758875    3.345209   -0.129171
     44          1           0        0.887085    1.494597   -1.150724
     45          1           0       -0.345735    1.695926   -3.319870
     46          1           0       -2.530096    2.878731   -3.407738
     47          1           0       -3.436562    3.931299   -1.345879
     48          1           0       -2.158258    3.813644    0.768241
     49          8           0        0.669816    1.361852    1.650143
     50          1           0       -0.537563    0.264400    0.871952
     51          6           0        2.051005    0.733724    1.182886
     52          8           0        1.914292    0.179953    0.030317
     53          8           0        2.259034   -0.152183    2.260983
     54          1           0        1.569215   -0.834508    2.170180
     55          6           0        3.124386    1.830181    1.321531
     56          1           0        2.882380    2.493260    2.161664
     57          1           0        4.049511    1.311603    1.605266
     58          6           0        0.239254    2.631471    1.249657
     59          1           0       -0.429457    3.012445    2.037247
     60          1           0        1.079667    3.338973    1.201445
     61          6           0       -1.479171    0.036305    3.656676
     62          1           0       -0.594504    0.664290    3.511133
     63          1           0       -2.402491    0.611448    3.572975
     64          1           0       -1.434637   -0.502375    4.604525
     65          6           0        3.378001    2.626255    0.043491
     66          1           0        3.698855    1.934253   -0.743446
     67          1           0        2.449902    3.074806   -0.330311
     68          6           0        4.424809    3.718575    0.248851
     69          1           0        4.627675    4.266714   -0.676436
     70          1           0        4.090950    4.442565    1.000678
     71          1           0        5.370088    3.292558    0.603264
     72          6           0        4.930726   -2.199531   -0.505533
     73          1           0        5.538359   -2.157408    0.400292
     74          1           0        5.381024   -2.922199   -1.195387
     75          6           0        4.758042   -0.836738   -1.177290
     76          1           0        4.509352   -0.092229   -0.415767
     77          1           0        5.633111   -0.508626   -1.742388
 ---------------------------------------------------------------------
 Rotational constants (GHZ):           0.1505693           0.0986089           0.0892015
 Leave Link  202 at Thu Feb  7 09:44:35 2019, MaxMem=   104857600 cpu:               2.4 elap:               0.1
 (Enter /home/xinyan/g16/l301.exe)
 Standard basis: 6-31G(d) (6D, 7F)
 Ernie: Thresh=  0.10000D-02 Tol=  0.10000D-05 Strict=F.
 There are   626 symmetry adapted cartesian basis functions of A   symmetry.
 There are   626 symmetry adapted basis functions of A   symmetry.
   626 basis functions,  1196 primitive gaussians,   626 cartesian basis functions
   140 alpha electrons      140 beta electrons
       nuclear repulsion energy      4953.8565231890 Hartrees.
 IExCor= 4336 DFT=T Ex+Corr=M062X ExCW=0 ScaHFX=  0.540000
 ScaDFX=  1.000000  1.000000  1.000000  1.000000 ScalE2=  1.000000  1.000000
 IRadAn=      5 IRanWt=     -1 IRanGd=            0 ICorTp=0 IEmpDi=131
 NAtoms=   77 NActive=   77 NUniq=   77 SFac= 1.00D+00 NAtFMM=   60 NAOKFM=T Big=T
 Integral buffers will be    131072 words long.
 Raffenetti 2 integral format.
 Two-electron integral symmetry is turned on.
 R6Disp:  Grimme-D3 Dispersion energy=       -0.0107009677 Hartrees.
 Nuclear repulsion after empirical dispersion term =     4953.8458222213 Hartrees.
 Leave Link  301 at Thu Feb  7 09:44:36 2019, MaxMem=   104857600 cpu:               3.0 elap:               0.2
 (Enter /home/xinyan/g16/l302.exe)
 NPDir=0 NMtPBC=     1 NCelOv=     1 NCel=       1 NClECP=     1 NCelD=      1
         NCelK=      1 NCelE2=     1 NClLst=     1 CellRange=     0.0.
 One-electron integrals computed using PRISM.
 One-electron integral symmetry used in STVInt
 PrsmSu:  requested number of processors reduced to:  23 ShMem   1 Linda.
 NBasis=   626 RedAO= T EigKep=  4.36D-04  NBF=   626
 NBsUse=   626 1.00D-06 EigRej= -1.00D+00 NBFU=   626
 Precomputing XC quadrature grid using
 IXCGrd= 4 IRadAn=           5 IRanWt=          -1 IRanGd=           0 AccXCQ= 0.00D+00.
 Generated NRdTot=       0 NPtTot=           0 NUsed=           0 NTot=          32
 NSgBfM=   618   614   614   617   618 MxSgAt=    77 MxSgA2=    77.
 Leave Link  302 at Thu Feb  7 09:44:39 2019, MaxMem=   104857600 cpu:              85.1 elap:               3.7
 (Enter /home/xinyan/g16/l303.exe)
 DipDrv:  MaxL=1.
 Leave Link  303 at Thu Feb  7 09:44:40 2019, MaxMem=   104857600 cpu:               6.2 elap:               0.3
 (Enter /home/xinyan/g16/l401.exe)
 ExpMin= 1.17D-01 ExpMax= 2.19D+04 ExpMxC= 3.30D+03 IAcc=3 IRadAn=         5 AccDes= 0.00D+00
 Harris functional with IExCor= 1009 and IRadAn=       5 diagonalized for initial guess.
 HarFok:  IExCor= 1009 AccDes= 0.00D+00 IRadAn=         5 IDoV= 1 UseB2=F ITyADJ=14
 ICtDFT=  3500011 ScaDFX=  1.000000  1.000000  1.000000  1.000000
 FoFCou: FMM=F IPFlag=           0 FMFlag=      100000 FMFlg1=        2001
         NFxFlg=           0 DoJE=T BraDBF=F KetDBF=T FulRan=T
         wScrn=  0.000000 ICntrl=       500 IOpCl=  0 I1Cent=   200000004 NGrid=           0
         NMat0=    1 NMatS0=      1 NMatT0=    0 NMatD0=    1 NMtDS0=    0 NMtDT0=    0
 Petite list used in FoFCou.
 Harris En= -1990.53602586124    
 JPrj=0 DoOrth=F DoCkMO=F.
 Leave Link  401 at Thu Feb  7 09:44:44 2019, MaxMem=   104857600 cpu:              98.9 elap:               4.2
 (Enter /home/xinyan/g16/l502.exe)
 Integral symmetry usage will be decided dynamically.
 Closed shell SCF:
 Using DIIS extrapolation, IDIIS=  1040.
 NGot=   104857600 LenX=   104051656 LenY=   103659154
 Requested convergence on RMS density matrix=1.00D-08 within 128 cycles.
 Requested convergence on MAX density matrix=1.00D-06.
 Requested convergence on             energy=1.00D-06.
 No special actions if energy rises.
 Fock matrices will be formed incrementally for  20 cycles.
 Integral accuracy reduced to 1.0D-05 until final iterations.

 Cycle   1  Pass 0  IDiag  1:
 FoFJK:  IHMeth= 1 ICntrl=       0 DoSepK=F KAlg= 0 I1Cent=           0 FoldK=F
 IRaf= 990000000 NMat=       1 IRICut=       1 DoRegI=T DoRafI=F ISym2E= 0 IDoP0=0 IntGTp=1.
 FoFCou: FMM=T IPFlag=           0 FMFlag=      100000 FMFlg1=        2001
         NFxFlg=           0 DoJE=F BraDBF=F KetDBF=F FulRan=T
         wScrn=  0.000000 ICntrl=         0 IOpCl=  0 I1Cent=           0 NGrid=           0
         NMat0=    1 NMatS0=      1 NMatT0=    0 NMatD0=    1 NMtDS0=    0 NMtDT0=    0
 Symmetry not used in FoFCou.
 FMM levels:  10  Number of levels for PrismC:   9
 E= -1990.28823981919    
 DIIS: error= 2.38D-02 at cycle   1 NSaved=   1.
 NSaved= 1 IEnMin= 1 EnMin= -1990.28823981919     IErMin= 1 ErrMin= 2.38D-02
 ErrMax= 2.38D-02  0.00D+00 EMaxC= 1.00D-01 BMatC= 1.25D+00 BMatP= 1.25D+00
 IDIUse=3 WtCom= 7.62D-01 WtEn= 2.38D-01
 Coeff-Com:  0.100D+01
 Coeff-En:   0.100D+01
 Coeff:      0.100D+01
 Gap=     0.358 Goal=   None    Shift=    0.000
 GapD=    0.358 DampG=1.000 DampE=0.500 DampFc=0.5000 IDamp=-1.
 Damping current iteration by 5.00D-01
 RMSDP=3.48D-03 MaxDP=3.47D-01              OVMax= 1.96D-01

 Cycle   2  Pass 0  IDiag  1:
 RMSU=  1.73D-03    CP:  9.89D-01
 E= -1990.80383850798     Delta-E=       -0.515598688789 Rises=F Damp=T
 DIIS: error= 8.78D-03 at cycle   2 NSaved=   2.
 NSaved= 2 IEnMin= 2 EnMin= -1990.80383850798     IErMin= 2 ErrMin= 8.78D-03
 ErrMax= 8.78D-03  0.00D+00 EMaxC= 1.00D-01 BMatC= 9.36D-02 BMatP= 1.25D+00
 IDIUse=3 WtCom= 9.12D-01 WtEn= 8.78D-02
 Coeff-Com: -0.255D-01 0.103D+01
 Coeff-En:   0.000D+00 0.100D+01
 Coeff:     -0.233D-01 0.102D+01
 Gap=     0.260 Goal=   None    Shift=    0.000
 RMSDP=8.66D-04 MaxDP=7.80D-02 DE=-5.16D-01 OVMax= 1.26D-01

 Cycle   3  Pass 0  IDiag  1:
 RMSU=  8.54D-04    CP:  9.82D-01  9.38D-01
 E= -1991.31321890765     Delta-E=       -0.509380399666 Rises=F Damp=F
 DIIS: error= 7.33D-03 at cycle   3 NSaved=   3.
 NSaved= 3 IEnMin= 3 EnMin= -1991.31321890765     IErMin= 3 ErrMin= 7.33D-03
 ErrMax= 7.33D-03  0.00D+00 EMaxC= 1.00D-01 BMatC= 5.10D-02 BMatP= 9.36D-02
 IDIUse=3 WtCom= 9.27D-01 WtEn= 7.33D-02
 Coeff-Com: -0.699D-01 0.443D+00 0.627D+00
 Coeff-En:   0.000D+00 0.000D+00 0.100D+01
 Coeff:     -0.648D-01 0.411D+00 0.654D+00
 Gap=     0.232 Goal=   None    Shift=    0.000
 RMSDP=5.18D-04 MaxDP=3.69D-02 DE=-5.09D-01 OVMax= 6.26D-02

 Cycle   4  Pass 0  IDiag  1:
 RMSU=  3.39D-04    CP:  9.85D-01  1.04D+00  5.99D-01
 E= -1991.34455430588     Delta-E=       -0.031335398229 Rises=F Damp=F
 DIIS: error= 4.03D-03 at cycle   4 NSaved=   4.
 NSaved= 4 IEnMin= 4 EnMin= -1991.34455430588     IErMin= 4 ErrMin= 4.03D-03
 ErrMax= 4.03D-03  0.00D+00 EMaxC= 1.00D-01 BMatC= 1.25D-02 BMatP= 5.10D-02
 IDIUse=3 WtCom= 9.60D-01 WtEn= 4.03D-02
 Coeff-Com: -0.276D-01 0.899D-01 0.358D+00 0.580D+00
 Coeff-En:   0.000D+00 0.000D+00 0.208D+00 0.792D+00
 Coeff:     -0.265D-01 0.863D-01 0.352D+00 0.588D+00
 Gap=     0.228 Goal=   None    Shift=    0.000
 RMSDP=2.09D-04 MaxDP=1.16D-02 DE=-3.13D-02 OVMax= 3.31D-02

 Cycle   5  Pass 0  IDiag  1:
 RMSU=  8.68D-05    CP:  9.84D-01  1.03D+00  7.31D-01  5.58D-01
 E= -1991.35491479294     Delta-E=       -0.010360487060 Rises=F Damp=F
 DIIS: error= 1.05D-03 at cycle   5 NSaved=   5.
 NSaved= 5 IEnMin= 5 EnMin= -1991.35491479294     IErMin= 5 ErrMin= 1.05D-03
 ErrMax= 1.05D-03  0.00D+00 EMaxC= 1.00D-01 BMatC= 6.11D-04 BMatP= 1.25D-02
 IDIUse=3 WtCom= 9.90D-01 WtEn= 1.05D-02
 Coeff-Com: -0.915D-02 0.213D-01 0.136D+00 0.289D+00 0.563D+00
 Coeff-En:   0.000D+00 0.000D+00 0.000D+00 0.000D+00 0.100D+01
 Coeff:     -0.906D-02 0.210D-01 0.135D+00 0.286D+00 0.567D+00
 Gap=     0.228 Goal=   None    Shift=    0.000
 RMSDP=5.15D-05 MaxDP=3.81D-03 DE=-1.04D-02 OVMax= 9.82D-03

 Cycle   6  Pass 0  IDiag  1:
 RMSU=  2.73D-05    CP:  9.84D-01  1.03D+00  7.29D-01  6.31D-01  5.88D-01
 E= -1991.35544527821     Delta-E=       -0.000530485270 Rises=F Damp=F
 DIIS: error= 3.31D-04 at cycle   6 NSaved=   6.
 NSaved= 6 IEnMin= 6 EnMin= -1991.35544527821     IErMin= 6 ErrMin= 3.31D-04
 ErrMax= 3.31D-04  0.00D+00 EMaxC= 1.00D-01 BMatC= 6.00D-05 BMatP= 6.11D-04
 IDIUse=3 WtCom= 9.97D-01 WtEn= 3.31D-03
 Coeff-Com: -0.171D-02 0.165D-02 0.300D-01 0.818D-01 0.290D+00 0.598D+00
 Coeff-En:   0.000D+00 0.000D+00 0.000D+00 0.000D+00 0.298D-02 0.997D+00
 Coeff:     -0.171D-02 0.164D-02 0.299D-01 0.816D-01 0.289D+00 0.600D+00
 Gap=     0.228 Goal=   None    Shift=    0.000
 RMSDP=1.50D-05 MaxDP=8.71D-04 DE=-5.30D-04 OVMax= 2.54D-03

 Cycle   7  Pass 0  IDiag  1:
 RMSU=  9.32D-06    CP:  9.84D-01  1.03D+00  7.32D-01  6.31D-01  6.72D-01
                    CP:  6.79D-01
 E= -1991.35550213697     Delta-E=       -0.000056858760 Rises=F Damp=F
 DIIS: error= 4.36D-05 at cycle   7 NSaved=   7.
 NSaved= 7 IEnMin= 7 EnMin= -1991.35550213697     IErMin= 7 ErrMin= 4.36D-05
 ErrMax= 4.36D-05  0.00D+00 EMaxC= 1.00D-01 BMatC= 3.64D-06 BMatP= 6.00D-05
 IDIUse=1 WtCom= 1.00D+00 WtEn= 0.00D+00
 Coeff-Com:  0.190D-03-0.136D-02-0.157D-02 0.499D-02 0.686D-01 0.248D+00
 Coeff-Com:  0.681D+00
 Coeff:      0.190D-03-0.136D-02-0.157D-02 0.499D-02 0.686D-01 0.248D+00
 Coeff:      0.681D+00
 Gap=     0.228 Goal=   None    Shift=    0.000
 RMSDP=4.38D-06 MaxDP=2.29D-04 DE=-5.69D-05 OVMax= 5.64D-04

 Initial convergence to 1.0D-05 achieved.  Increase integral accuracy.
 Cycle   8  Pass 1  IDiag  1:
 E= -1991.35558186935     Delta-E=       -0.000079732385 Rises=F Damp=F
 DIIS: error= 1.84D-04 at cycle   1 NSaved=   1.
 NSaved= 1 IEnMin= 1 EnMin= -1991.35558186935     IErMin= 1 ErrMin= 1.84D-04
 ErrMax= 1.84D-04  0.00D+00 EMaxC= 1.00D-01 BMatC= 1.33D-05 BMatP= 1.33D-05
 IDIUse=3 WtCom= 9.98D-01 WtEn= 1.84D-03
 Coeff-Com:  0.100D+01
 Coeff-En:   0.100D+01
 Coeff:      0.100D+01
 Gap=     0.228 Goal=   None    Shift=    0.000
 RMSDP=4.38D-06 MaxDP=2.29D-04 DE=-7.97D-05 OVMax= 4.68D-04

 Cycle   9  Pass 1  IDiag  1:
 RMSU=  7.40D-05    CP:  1.00D+00
 E= -1991.35559406995     Delta-E=       -0.000012200595 Rises=F Damp=F
 DIIS: error= 1.91D-05 at cycle   2 NSaved=   2.
 NSaved= 2 IEnMin= 2 EnMin= -1991.35559406995     IErMin= 2 ErrMin= 1.91D-05
 ErrMax= 1.91D-05  0.00D+00 EMaxC= 1.00D-01 BMatC= 6.67D-07 BMatP= 1.33D-05
 IDIUse=1 WtCom= 1.00D+00 WtEn= 0.00D+00
 Coeff-Com:  0.555D-01 0.944D+00
 Coeff:      0.555D-01 0.944D+00
 Gap=     0.228 Goal=   None    Shift=    0.000
 RMSDP=3.76D-06 MaxDP=1.99D-04 DE=-1.22D-05 OVMax= 3.76D-04

 Cycle  10  Pass 1  IDiag  1:
 RMSU=  3.07D-06    CP:  1.00D+00  1.03D+00
 E= -1991.35559377748     Delta-E=        0.000000292464 Rises=F Damp=F
 DIIS: error= 3.35D-05 at cycle   3 NSaved=   3.
 NSaved= 3 IEnMin= 2 EnMin= -1991.35559406995     IErMin= 2 ErrMin= 1.91D-05
 ErrMax= 3.35D-05  0.00D+00 EMaxC= 1.00D-01 BMatC= 1.05D-06 BMatP= 6.67D-07
 IDIUse=1 WtCom= 1.00D+00 WtEn= 0.00D+00
 Coeff-Com: -0.146D-01 0.562D+00 0.452D+00
 Coeff:     -0.146D-01 0.562D+00 0.452D+00
 Gap=     0.228 Goal=   None    Shift=    0.000
 RMSDP=1.68D-06 MaxDP=1.21D-04 DE= 2.92D-07 OVMax= 2.29D-04

 Cycle  11  Pass 1  IDiag  1:
 RMSU=  6.56D-07    CP:  1.00D+00  1.03D+00  5.02D-01
 E= -1991.35559466497     Delta-E=       -0.000000887486 Rises=F Damp=F
 DIIS: error= 4.33D-06 at cycle   4 NSaved=   4.
 NSaved= 4 IEnMin= 4 EnMin= -1991.35559466497     IErMin= 4 ErrMin= 4.33D-06
 ErrMax= 4.33D-06  0.00D+00 EMaxC= 1.00D-01 BMatC= 1.15D-08 BMatP= 6.67D-07
 IDIUse=1 WtCom= 1.00D+00 WtEn= 0.00D+00
 Coeff-Com: -0.807D-02 0.256D+00 0.219D+00 0.534D+00
 Coeff:     -0.807D-02 0.256D+00 0.219D+00 0.534D+00
 Gap=     0.228 Goal=   None    Shift=    0.000
 RMSDP=2.25D-07 MaxDP=1.27D-05 DE=-8.87D-07 OVMax= 4.14D-05

 Cycle  12  Pass 1  IDiag  1:
 RMSU=  1.98D-07    CP:  1.00D+00  1.03D+00  5.22D-01  8.73D-01
 E= -1991.35559467596     Delta-E=       -0.000000010994 Rises=F Damp=F
 DIIS: error= 1.54D-06 at cycle   5 NSaved=   5.
 NSaved= 5 IEnMin= 5 EnMin= -1991.35559467596     IErMin= 5 ErrMin= 1.54D-06
 ErrMax= 1.54D-06  0.00D+00 EMaxC= 1.00D-01 BMatC= 9.86D-10 BMatP= 1.15D-08
 IDIUse=1 WtCom= 1.00D+00 WtEn= 0.00D+00
 Coeff-Com: -0.803D-03 0.988D-02 0.111D-01 0.210D+00 0.769D+00
 Coeff:     -0.803D-03 0.988D-02 0.111D-01 0.210D+00 0.769D+00
 Gap=     0.228 Goal=   None    Shift=    0.000
 RMSDP=9.13D-08 MaxDP=3.82D-06 DE=-1.10D-08 OVMax= 1.25D-05

 Cycle  13  Pass 1  IDiag  1:
 RMSU=  6.85D-08    CP:  1.00D+00  1.03D+00  5.25D-01  9.56D-01  8.97D-01
 E= -1991.35559467697     Delta-E=       -0.000000001007 Rises=F Damp=F
 DIIS: error= 4.12D-07 at cycle   6 NSaved=   6.
 NSaved= 6 IEnMin= 6 EnMin= -1991.35559467697     IErMin= 6 ErrMin= 4.12D-07
 ErrMax= 4.12D-07  0.00D+00 EMaxC= 1.00D-01 BMatC= 2.41D-10 BMatP= 9.86D-10
 IDIUse=1 WtCom= 1.00D+00 WtEn= 0.00D+00
 Coeff-Com:  0.835D-03-0.346D-01-0.285D-01 0.381D-01 0.414D+00 0.610D+00
 Coeff:      0.835D-03-0.346D-01-0.285D-01 0.381D-01 0.414D+00 0.610D+00
 Gap=     0.228 Goal=   None    Shift=    0.000
 RMSDP=3.71D-08 MaxDP=1.88D-06 DE=-1.01D-09 OVMax= 6.62D-06

 Cycle  14  Pass 1  IDiag  1:
 RMSU=  2.77D-08    CP:  1.00D+00  1.03D+00  5.26D-01  9.75D-01  9.78D-01
                    CP:  8.16D-01
 E= -1991.35559467719     Delta-E=       -0.000000000224 Rises=F Damp=F
 DIIS: error= 1.61D-07 at cycle   7 NSaved=   7.
 NSaved= 7 IEnMin= 7 EnMin= -1991.35559467719     IErMin= 7 ErrMin= 1.61D-07
 ErrMax= 1.61D-07  0.00D+00 EMaxC= 1.00D-01 BMatC= 1.97D-11 BMatP= 2.41D-10
 IDIUse=1 WtCom= 1.00D+00 WtEn= 0.00D+00
 Coeff-Com:  0.439D-03-0.160D-01-0.137D-01-0.606D-03 0.103D+00 0.273D+00
 Coeff-Com:  0.653D+00
 Coeff:      0.439D-03-0.160D-01-0.137D-01-0.606D-03 0.103D+00 0.273D+00
 Coeff:      0.653D+00
 Gap=     0.228 Goal=   None    Shift=    0.000
 RMSDP=1.12D-08 MaxDP=6.23D-07 DE=-2.24D-10 OVMax= 1.74D-06

 Cycle  15  Pass 1  IDiag  1:
 RMSU=  8.28D-09    CP:  1.00D+00  1.03D+00  5.27D-01  9.80D-01  9.84D-01
                    CP:  9.08D-01  1.01D+00
 E= -1991.35559467724     Delta-E=       -0.000000000044 Rises=F Damp=F
 DIIS: error= 4.00D-08 at cycle   8 NSaved=   8.
 NSaved= 8 IEnMin= 8 EnMin= -1991.35559467724     IErMin= 8 ErrMin= 4.00D-08
 ErrMax= 4.00D-08  0.00D+00 EMaxC= 1.00D-01 BMatC= 2.13D-12 BMatP= 1.97D-11
 IDIUse=1 WtCom= 1.00D+00 WtEn= 0.00D+00
 Coeff-Com:  0.378D-05 0.664D-03 0.144D-03-0.654D-02-0.461D-01-0.991D-02
 Coeff-Com:  0.230D+00 0.832D+00
 Coeff:      0.378D-05 0.664D-03 0.144D-03-0.654D-02-0.461D-01-0.991D-02
 Coeff:      0.230D+00 0.832D+00
 Gap=     0.228 Goal=   None    Shift=    0.000
 RMSDP=4.93D-09 MaxDP=2.51D-07 DE=-4.37D-11 OVMax= 8.57D-07

 SCF Done:  E(RM062X) =  -1991.35559468     A.U. after   15 cycles
            NFock= 15  Conv=0.49D-08     -V/T= 2.0076
 KE= 1.976415056120D+03 PE=-1.455986007869D+04 EE= 5.638243605669D+03
 Leave Link  502 at Thu Feb  7 09:47:19 2019, MaxMem=   104857600 cpu:            3729.7 elap:             155.6
 (Enter /home/xinyan/g16/l601.exe)
 Copying SCF densities to generalized density rwf, IOpCl= 0 IROHF=0.

 **********************************************************************

            Population analysis using the SCF density.

 **********************************************************************

 Orbital symmetries:
       Occupied  (A) (A) (A) (A) (A) (A) (A) (A) (A) (A) (A) (A)
                 (A) (A) (A) (A) (A) (A) (A) (A) (A) (A) (A) (A)
                 (A) (A) (A) (A) (A) (A) (A) (A) (A) (A) (A) (A)
                 (A) (A) (A) (A) (A) (A) (A) (A) (A) (A) (A) (A)
                 (A) (A) (A) (A) (A) (A) (A) (A) (A) (A) (A) (A)
                 (A) (A) (A) (A) (A) (A) (A) (A) (A) (A) (A) (A)
                 (A) (A) (A) (A) (A) (A) (A) (A) (A) (A) (A) (A)
                 (A) (A) (A) (A) (A) (A) (A) (A) (A) (A) (A) (A)
                 (A) (A) (A) (A) (A) (A) (A) (A) (A) (A) (A) (A)
                 (A) (A) (A) (A) (A) (A) (A) (A) (A) (A) (A) (A)
                 (A) (A) (A) (A) (A) (A) (A) (A) (A) (A) (A) (A)
                 (A) (A) (A) (A) (A) (A) (A) (A)
       Virtual   (A) (A) (A) (A) (A) (A) (A) (A) (A) (A) (A) (A)
                 (A) (A) (A) (A) (A) (A) (A) (A) (A) (A) (A) (A)
                 (A) (A) (A) (A) (A) (A) (A) (A) (A) (A) (A) (A)
                 (A) (A) (A) (A) (A) (A) (A) (A) (A) (A) (A) (A)
                 (A) (A) (A) (A) (A) (A) (A) (A) (A) (A) (A) (A)
                 (A) (A) (A) (A) (A) (A) (A) (A) (A) (A) (A) (A)
                 (A) (A) (A) (A) (A) (A) (A) (A) (A) (A) (A) (A)
                 (A) (A) (A) (A) (A) (A) (A) (A) (A) (A) (A) (A)
                 (A) (A) (A) (A) (A) (A) (A) (A) (A) (A) (A) (A)
                 (A) (A) (A) (A) (A) (A) (A) (A) (A) (A) (A) (A)
                 (A) (A) (A) (A) (A) (A) (A) (A) (A) (A) (A) (A)
                 (A) (A) (A) (A) (A) (A) (A) (A) (A) (A) (A) (A)
                 (A) (A) (A) (A) (A) (A) (A) (A) (A) (A) (A) (A)
                 (A) (A) (A) (A) (A) (A) (A) (A) (A) (A) (A) (A)
                 (A) (A) (A) (A) (A) (A) (A) (A) (A) (A) (A) (A)
                 (A) (A) (A) (A) (A) (A) (A) (A) (A) (A) (A) (A)
                 (A) (A) (A) (A) (A) (A) (A) (A) (A) (A) (A) (A)
                 (A) (A) (A) (A) (A) (A) (A) (A) (A) (A) (A) (A)
                 (A) (A) (A) (A) (A) (A) (A) (A) (A) (A) (A) (A)
                 (A) (A) (A) (A) (A) (A) (A) (A) (A) (A) (A) (A)
                 (A) (A) (A) (A) (A) (A) (A) (A) (A) (A) (A) (A)
                 (A) (A) (A) (A) (A) (A) (A) (A) (A) (A) (A) (A)
                 (A) (A) (A) (A) (A) (A) (A) (A) (A) (A) (A) (A)
                 (A) (A) (A) (A) (A) (A) (A) (A) (A) (A) (A) (A)
                 (A) (A) (A) (A) (A) (A) (A) (A) (A) (A) (A) (A)
                 (A) (A) (A) (A) (A) (A) (A) (A) (A) (A) (A) (A)
                 (A) (A) (A) (A) (A) (A) (A) (A) (A) (A) (A) (A)
                 (A) (A) (A) (A) (A) (A) (A) (A) (A) (A) (A) (A)
                 (A) (A) (A) (A) (A) (A) (A) (A) (A) (A) (A) (A)
                 (A) (A) (A) (A) (A) (A) (A) (A) (A) (A) (A) (A)
                 (A) (A) (A) (A) (A) (A) (A) (A) (A) (A) (A) (A)
                 (A) (A) (A) (A) (A) (A) (A) (A) (A) (A) (A) (A)
                 (A) (A) (A) (A) (A) (A) (A) (A) (A) (A) (A) (A)
                 (A) (A) (A) (A) (A) (A) (A) (A) (A) (A) (A) (A)
                 (A) (A) (A) (A) (A) (A) (A) (A) (A) (A) (A) (A)
                 (A) (A) (A) (A) (A) (A) (A) (A) (A) (A) (A) (A)
                 (A) (A) (A) (A) (A) (A) (A) (A) (A) (A) (A) (A)
                 (A) (A) (A) (A) (A) (A) (A) (A) (A) (A) (A) (A)
                 (A) (A) (A) (A) (A) (A) (A) (A) (A) (A) (A) (A)
                 (A) (A) (A) (A) (A) (A) (A) (A) (A) (A) (A) (A)
                 (A) (A) (A) (A) (A) (A)
 The electronic state is 1-A.
 Alpha  occ. eigenvalues --  -90.14730 -19.62372 -19.62069 -19.58563 -19.57093
 Alpha  occ. eigenvalues --  -19.50720 -14.85174 -14.80037 -14.76458 -10.63152
 Alpha  occ. eigenvalues --  -10.62604 -10.62267 -10.62120 -10.61077 -10.59864
 Alpha  occ. eigenvalues --  -10.57764 -10.57752 -10.57633 -10.57031 -10.56965
 Alpha  occ. eigenvalues --  -10.56881 -10.56371 -10.55869 -10.55125 -10.55083
 Alpha  occ. eigenvalues --  -10.55045 -10.54889 -10.54690 -10.54686 -10.54655
 Alpha  occ. eigenvalues --  -10.54458 -10.54045 -10.53126 -10.51104 -10.50996
 Alpha  occ. eigenvalues --  -10.49593  -8.45702  -6.37929  -6.37878  -6.37752
 Alpha  occ. eigenvalues --   -1.22521  -1.13448  -1.12822  -1.10725  -1.08871
 Alpha  occ. eigenvalues --   -1.05980  -1.02417  -1.00116  -0.95825  -0.95221
 Alpha  occ. eigenvalues --   -0.93467  -0.90112  -0.88565  -0.86527  -0.85378
 Alpha  occ. eigenvalues --   -0.84919  -0.84850  -0.83708  -0.83316  -0.83056
 Alpha  occ. eigenvalues --   -0.76561  -0.76003  -0.75548  -0.74215  -0.73252
 Alpha  occ. eigenvalues --   -0.71752  -0.68233  -0.68139  -0.67747  -0.67488
 Alpha  occ. eigenvalues --   -0.66423  -0.65489  -0.64881  -0.63331  -0.60526
 Alpha  occ. eigenvalues --   -0.60381  -0.59953  -0.59407  -0.57946  -0.57687
 Alpha  occ. eigenvalues --   -0.57148  -0.56383  -0.55655  -0.55081  -0.54384
 Alpha  occ. eigenvalues --   -0.53556  -0.53070  -0.52667  -0.52459  -0.52170
 Alpha  occ. eigenvalues --   -0.51680  -0.50811  -0.50128  -0.49922  -0.49362
 Alpha  occ. eigenvalues --   -0.49242  -0.48929  -0.48499  -0.48194  -0.48020
 Alpha  occ. eigenvalues --   -0.47715  -0.47639  -0.47163  -0.46186  -0.45818
 Alpha  occ. eigenvalues --   -0.45316  -0.45174  -0.44392  -0.44042  -0.43188
 Alpha  occ. eigenvalues --   -0.42467  -0.42333  -0.41191  -0.40868  -0.40751
 Alpha  occ. eigenvalues --   -0.40669  -0.40396  -0.40139  -0.39838  -0.39418
 Alpha  occ. eigenvalues --   -0.39131  -0.38901  -0.38705  -0.38312  -0.37778
 Alpha  occ. eigenvalues --   -0.37432  -0.36514  -0.36442  -0.36049  -0.35030
 Alpha  occ. eigenvalues --   -0.34556  -0.34294  -0.31813  -0.31325  -0.30021
 Alpha  occ. eigenvalues --   -0.29286  -0.28820  -0.27770  -0.24352  -0.24024
 Alpha virt. eigenvalues --   -0.01228   0.00585   0.03203   0.03570   0.10159
 Alpha virt. eigenvalues --    0.10590   0.11344   0.12565   0.13168   0.13324
 Alpha virt. eigenvalues --    0.14145   0.14424   0.15061   0.15529   0.15538
 Alpha virt. eigenvalues --    0.16174   0.16452   0.16930   0.17332   0.17677
 Alpha virt. eigenvalues --    0.17964   0.18022   0.18195   0.18697   0.19072
 Alpha virt. eigenvalues --    0.19245   0.19396   0.19865   0.19997   0.20218
 Alpha virt. eigenvalues --    0.20450   0.20920   0.21138   0.21238   0.21412
 Alpha virt. eigenvalues --    0.21963   0.22061   0.22454   0.22819   0.23261
 Alpha virt. eigenvalues --    0.23540   0.23926   0.24505   0.24618   0.24811
 Alpha virt. eigenvalues --    0.25147   0.25368   0.25695   0.26097   0.26635
 Alpha virt. eigenvalues --    0.26870   0.27249   0.27953   0.28430   0.28591
 Alpha virt. eigenvalues --    0.28814   0.29369   0.29621   0.30276   0.30828
 Alpha virt. eigenvalues --    0.30920   0.31631   0.31905   0.32090   0.32252
 Alpha virt. eigenvalues --    0.33228   0.33865   0.34785   0.35294   0.35517
 Alpha virt. eigenvalues --    0.36067   0.37237   0.37721   0.37982   0.39005
 Alpha virt. eigenvalues --    0.39553   0.40107   0.40322   0.42213   0.42699
 Alpha virt. eigenvalues --    0.44114   0.44794   0.46394   0.47916   0.49021
 Alpha virt. eigenvalues --    0.49212   0.50984   0.52361   0.53345   0.54424
 Alpha virt. eigenvalues --    0.54895   0.55516   0.55917   0.56841   0.57312
 Alpha virt. eigenvalues --    0.57670   0.57949   0.58660   0.59244   0.59563
 Alpha virt. eigenvalues --    0.59932   0.60230   0.60531   0.60681   0.61027
 Alpha virt. eigenvalues --    0.61457   0.61793   0.62486   0.62498   0.62966
 Alpha virt. eigenvalues --    0.63617   0.63941   0.64451   0.64758   0.65568
 Alpha virt. eigenvalues --    0.66038   0.66081   0.66529   0.67463   0.67884
 Alpha virt. eigenvalues --    0.68140   0.68668   0.69448   0.69876   0.70398
 Alpha virt. eigenvalues --    0.70840   0.71540   0.71875   0.72870   0.73097
 Alpha virt. eigenvalues --    0.73471   0.74426   0.74668   0.75161   0.75739
 Alpha virt. eigenvalues --    0.76655   0.77101   0.77495   0.77777   0.78785
 Alpha virt. eigenvalues --    0.79004   0.79426   0.79690   0.80120   0.80900
 Alpha virt. eigenvalues --    0.81071   0.81610   0.82899   0.83609   0.84323
 Alpha virt. eigenvalues --    0.84522   0.85087   0.85190   0.85488   0.86315
 Alpha virt. eigenvalues --    0.87536   0.88284   0.88805   0.89260   0.89652
 Alpha virt. eigenvalues --    0.89836   0.90052   0.90371   0.90861   0.91319
 Alpha virt. eigenvalues --    0.91762   0.92170   0.92409   0.92801   0.93408
 Alpha virt. eigenvalues --    0.93516   0.93962   0.94281   0.94764   0.95084
 Alpha virt. eigenvalues --    0.95346   0.95557   0.96340   0.96637   0.96754
 Alpha virt. eigenvalues --    0.96808   0.97484   0.97780   0.97994   0.98703
 Alpha virt. eigenvalues --    0.98947   0.99374   0.99648   0.99783   1.00651
 Alpha virt. eigenvalues --    1.01030   1.01254   1.01957   1.02442   1.02599
 Alpha virt. eigenvalues --    1.02883   1.03611   1.04192   1.04511   1.05210
 Alpha virt. eigenvalues --    1.06145   1.06442   1.07457   1.08093   1.08573
 Alpha virt. eigenvalues --    1.09570   1.09871   1.10627   1.11393   1.11762
 Alpha virt. eigenvalues --    1.12626   1.13047   1.13485   1.14388   1.15338
 Alpha virt. eigenvalues --    1.16106   1.17221   1.17961   1.18831   1.18888
 Alpha virt. eigenvalues --    1.19638   1.19765   1.20120   1.20902   1.21204
 Alpha virt. eigenvalues --    1.23145   1.23622   1.24255   1.24640   1.25433
 Alpha virt. eigenvalues --    1.25874   1.26639   1.27577   1.28630   1.30125
 Alpha virt. eigenvalues --    1.30834   1.31161   1.32215   1.32296   1.32655
 Alpha virt. eigenvalues --    1.33206   1.34307   1.35285   1.35600   1.36409
 Alpha virt. eigenvalues --    1.37234   1.38105   1.38669   1.40690   1.41159
 Alpha virt. eigenvalues --    1.41834   1.42099   1.44299   1.45646   1.46487
 Alpha virt. eigenvalues --    1.47439   1.47604   1.48883   1.49590   1.50853
 Alpha virt. eigenvalues --    1.51014   1.52103   1.52186   1.52913   1.54068
 Alpha virt. eigenvalues --    1.54414   1.54806   1.55102   1.55645   1.57137
 Alpha virt. eigenvalues --    1.57380   1.58028   1.59070   1.59550   1.60871
 Alpha virt. eigenvalues --    1.61947   1.62797   1.64148   1.64430   1.66901
 Alpha virt. eigenvalues --    1.68618   1.69591   1.69934   1.71645   1.73856
 Alpha virt. eigenvalues --    1.74159   1.74654   1.75610   1.76725   1.77022
 Alpha virt. eigenvalues --    1.78272   1.78898   1.80330   1.81093   1.81778
 Alpha virt. eigenvalues --    1.83264   1.83885   1.84020   1.85317   1.85765
 Alpha virt. eigenvalues --    1.86372   1.86784   1.87340   1.87850   1.88715
 Alpha virt. eigenvalues --    1.89212   1.89678   1.90224   1.90935   1.91184
 Alpha virt. eigenvalues --    1.92298   1.93119   1.93494   1.93810   1.94299
 Alpha virt. eigenvalues --    1.94725   1.95381   1.95653   1.96767   1.97195
 Alpha virt. eigenvalues --    1.97322   1.99121   1.99180   2.00312   2.00618
 Alpha virt. eigenvalues --    2.00926   2.01724   2.02120   2.03072   2.04119
 Alpha virt. eigenvalues --    2.04724   2.05642   2.05950   2.06300   2.06636
 Alpha virt. eigenvalues --    2.07101   2.07427   2.08251   2.09063   2.09455
 Alpha virt. eigenvalues --    2.10133   2.10432   2.10598   2.11460   2.11890
 Alpha virt. eigenvalues --    2.12440   2.13350   2.14398   2.14769   2.15208
 Alpha virt. eigenvalues --    2.15993   2.16556   2.17275   2.17924   2.18223
 Alpha virt. eigenvalues --    2.19286   2.19785   2.20499   2.20869   2.20966
 Alpha virt. eigenvalues --    2.22019   2.23028   2.23118   2.23587   2.23704
 Alpha virt. eigenvalues --    2.24756   2.24876   2.25520   2.26779   2.27541
 Alpha virt. eigenvalues --    2.28034   2.28962   2.29821   2.30741   2.31112
 Alpha virt. eigenvalues --    2.32053   2.33399   2.34564   2.34856   2.35156
 Alpha virt. eigenvalues --    2.36080   2.36944   2.37458   2.38000   2.38240
 Alpha virt. eigenvalues --    2.39781   2.40769   2.40894   2.41403   2.41651
 Alpha virt. eigenvalues --    2.42699   2.44508   2.45877   2.46490   2.47790
 Alpha virt. eigenvalues --    2.49448   2.49880   2.50719   2.51204   2.52549
 Alpha virt. eigenvalues --    2.53308   2.54193   2.56277   2.56946   2.58587
 Alpha virt. eigenvalues --    2.60808   2.61315   2.61577   2.62350   2.63346
 Alpha virt. eigenvalues --    2.63835   2.64807   2.65203   2.67368   2.68319
 Alpha virt. eigenvalues --    2.69026   2.69480   2.70006   2.71308   2.71691
 Alpha virt. eigenvalues --    2.72752   2.74377   2.75621   2.76025   2.77707
 Alpha virt. eigenvalues --    2.78463   2.79058   2.80209   2.81062   2.81262
 Alpha virt. eigenvalues --    2.83353   2.86115   2.86342   2.86580   2.88492
 Alpha virt. eigenvalues --    2.90041   2.91386   2.93026   2.93293   2.95843
 Alpha virt. eigenvalues --    3.00017   3.00124   3.00784   3.04582   3.10227
 Alpha virt. eigenvalues --    3.14157   3.17973   3.24170   3.41620   3.42569
 Alpha virt. eigenvalues --    3.93436   4.00187   4.03856   4.08783   4.13114
 Alpha virt. eigenvalues --    4.13256   4.15132   4.15966   4.17901   4.18770
 Alpha virt. eigenvalues --    4.20318   4.22032   4.23974   4.26195   4.26889
 Alpha virt. eigenvalues --    4.28306   4.30984   4.32628   4.34917   4.35864
 Alpha virt. eigenvalues --    4.37586   4.39609   4.40831   4.43146   4.45232
 Alpha virt. eigenvalues --    4.46257   4.55638   4.58166   4.59191   4.60926
 Alpha virt. eigenvalues --    4.62397   4.65800   4.73062   4.74851   4.76747
 Alpha virt. eigenvalues --    4.78042
          Condensed to atoms (all electrons):
 Mulliken charges:
               1
     1  C   -0.306515
     2  C   -0.307794
     3  C   -0.311229
     4  C   -0.060447
     5  C    0.065126
     6  C   -0.306843
     7  H    0.175474
     8  H    0.163263
     9  H    0.166766
    10  H    0.151367
    11  H    0.164917
    12  H    0.207376
    13  H    0.174552
    14  H    0.192501
    15  H    0.160539
    16  H    0.156439
    17  N   -0.437329
    18  C    0.079779
    19  C    0.080534
    20  C   -0.210062
    21  H    0.202815
    22  C   -0.221031
    23  H    0.243598
    24  C    0.449116
    25  H    0.192027
    26  H    0.209701
    27  N   -0.518238
    28  C   -0.164996
    29  H    0.167045
    30  H    0.220803
    31  C   -0.145309
    32  H    0.160346
    33  H    0.205405
    34  N   -0.811405
    35  S    1.237857
    36  O   -0.603573
    37  O   -0.591513
    38  C    0.049443
    39  C   -0.196859
    40  C   -0.192606
    41  C   -0.172455
    42  C   -0.165284
    43  C   -0.205203
    44  H    0.234731
    45  H    0.141503
    46  H    0.156264
    47  H    0.159867
    48  H    0.154322
    49  O   -0.600530
    50  H    0.450665
    51  C    0.715105
    52  O   -0.687663
    53  O   -0.702062
    54  H    0.432466
    55  C   -0.340077
    56  H    0.143891
    57  H    0.150920
    58  C   -0.080004
    59  H    0.130614
    60  H    0.156325
    61  C   -0.666404
    62  H    0.267413
    63  H    0.200333
    64  H    0.223037
    65  C   -0.285121
    66  H    0.142765
    67  H    0.140480
    68  C   -0.475023
    69  H    0.148307
    70  H    0.149162
    71  H    0.148644
    72  C   -0.334089
    73  H    0.184326
    74  H    0.159985
    75  C   -0.338352
    76  H    0.205337
    77  H    0.164763
 Sum of Mulliken charges =  -0.00000
 Mulliken charges with hydrogens summed into heavy atoms:
               1
     1  C    0.009769
     2  C    0.022236
     3  C    0.020683
     4  C    0.146929
     5  C    0.239678
     6  C    0.046197
    17  N   -0.437329
    18  C    0.282594
    19  C    0.324133
    20  C   -0.018036
    22  C   -0.011329
    24  C    0.449116
    27  N   -0.518238
    28  C    0.222852
    31  C    0.220442
    34  N   -0.360740
    35  S    1.237857
    36  O   -0.603573
    37  O   -0.591513
    38  C    0.049443
    39  C    0.037872
    40  C   -0.051103
    41  C   -0.016190
    42  C   -0.005417
    43  C   -0.050882
    49  O   -0.600530
    51  C    0.715105
    52  O   -0.687663
    53  O   -0.269596
    55  C   -0.045266
    58  C    0.206935
    61  C    0.024380
    65  C   -0.001876
    68  C   -0.028910
    72  C    0.010223
    75  C    0.031748
 Electronic spatial extent (au):  <R**2>=          14637.6336
 Charge=              0.0000 electrons
 Dipole moment (field-independent basis, Debye):
    X=             -3.5686    Y=             -1.5161    Z=             -5.7097  Tot=              6.9017
 Quadrupole moment (field-independent basis, Debye-Ang):
   XX=           -208.5580   YY=           -222.5532   ZZ=           -218.2112
   XY=            -13.4481   XZ=             -4.1607   YZ=             10.7855
 Traceless Quadrupole moment (field-independent basis, Debye-Ang):
   XX=              7.8828   YY=             -6.1124   ZZ=             -1.7704
   XY=            -13.4481   XZ=             -4.1607   YZ=             10.7855
 Octapole moment (field-independent basis, Debye-Ang**2):
  XXX=              4.4677  YYY=            -52.1832  ZZZ=             18.4234  XYY=              5.3479
  XXY=            -24.0572  XXZ=            -41.3449  XZZ=            -24.3541  YZZ=             15.9525
  YYZ=             16.6516  XYZ=            -17.3141
 Hexadecapole moment (field-independent basis, Debye-Ang**3):
 XXXX=         -10014.8573 YYYY=          -5532.8968 ZZZZ=          -3658.2244 XXXY=           -205.4971
 XXXZ=             -3.9364 YYYX=           -113.5399 YYYZ=             43.8216 ZZZX=           -111.6351
 ZZZY=             -4.4809 XXYY=          -2608.2138 XXZZ=          -2370.2179 YYZZ=          -1640.0532
 XXYZ=             45.8430 YYXZ=             49.4155 ZZXY=            -53.4293
 N-N= 4.953845822221D+03 E-N=-1.455986005307D+04  KE= 1.976415056120D+03
 No NMR shielding tensors so no spin-rotation constants.
 Leave Link  601 at Thu Feb  7 09:47:21 2019, MaxMem=   104857600 cpu:              26.6 elap:               1.2
 (Enter /home/xinyan/g16/l701.exe)
 ... and contract with generalized density number  0.
 Compute integral first derivatives.
 R6Disp: Adding Grimme-D3 dispersion energy 1st derivatives to the gradient.
 Leave Link  701 at Thu Feb  7 09:47:22 2019, MaxMem=   104857600 cpu:              24.1 elap:               1.1
 (Enter /home/xinyan/g16/l702.exe)
 L702 exits ... SP integral derivatives will be done elsewhere.
 Leave Link  702 at Thu Feb  7 09:47:22 2019, MaxMem=   104857600 cpu:               1.4 elap:               0.1
 (Enter /home/xinyan/g16/l703.exe)
 Integral derivatives from FoFJK, PRISM(SPDF).
 Compute integral first derivatives, UseDBF=F ICtDFT=           0.
 Calling FoFJK, ICntrl=      2127 FMM=T ISym2X=0 I1Cent= 0 IOpClX= 0 NMat=1 NMatS=1 NMatT=0.
 FoFJK:  IHMeth= 1 ICntrl=    2127 DoSepK=F KAlg= 0 I1Cent=           0 FoldK=F
 IRaf=         0 NMat=       1 IRICut=       1 DoRegI=T DoRafI=F ISym2E= 0 IDoP0=0 IntGTp=1.
 FoFCou: FMM=T IPFlag=           0 FMFlag=      100000 FMFlg1=        2001
         NFxFlg=           0 DoJE=F BraDBF=F KetDBF=F FulRan=T
         wScrn=  0.000000 ICntrl=      2127 IOpCl=  0 I1Cent=           0 NGrid=           0
         NMat0=    1 NMatS0=      1 NMatT0=    0 NMatD0=    1 NMtDS0=    0 NMtDT0=    0
 Symmetry not used in FoFCou.
 FMM levels:  10  Number of levels for PrismC:   9
 Leave Link  703 at Thu Feb  7 09:47:57 2019, MaxMem=   104857600 cpu:             814.1 elap:              34.9
 (Enter /home/xinyan/g16/l716.exe)
 Dipole        =-1.40399969D+00-5.96475317D-01-2.24635418D+00
 ***** Axes restored to original set *****
 -------------------------------------------------------------------
 Center     Atomic                   Forces (Hartrees/Bohr)
 Number     Number              X              Y              Z
 -------------------------------------------------------------------
      1        6          -0.000014634   -0.000003473   -0.000015352
      2        6          -0.000013007   -0.000003928   -0.000012734
      3        6          -0.000003503   -0.000018113   -0.000019295
      4        6           0.000021153   -0.000004149   -0.000006208
      5        6           0.000044790    0.000005794   -0.000009912
      6        6           0.000009500   -0.000012944   -0.000019278
      7        1           0.000007319   -0.000006519   -0.000008220
      8        1           0.000006206   -0.000012787   -0.000015469
      9        1           0.000000410   -0.000013376   -0.000013603
     10        1          -0.000005322   -0.000012303   -0.000011539
     11        1           0.000003387   -0.000012696   -0.000016564
     12        1           0.000000480    0.000008987   -0.000013114
     13        1          -0.000031800   -0.000025978   -0.000034279
     14        1           0.000004014   -0.000001171   -0.000013710
     15        1           0.000006916   -0.000004836   -0.000020367
     16        1          -0.000006659   -0.000011090   -0.000011669
     17        7          -0.000002876   -0.000013001    0.000010768
     18        6          -0.000007293    0.000004227   -0.000009350
     19        6          -0.000007375    0.000009997   -0.000002800
     20        6           0.000008997   -0.000002766   -0.000000806
     21        1           0.000014292    0.000017971   -0.000002033
     22        6           0.000005391    0.000012658   -0.000000003
     23        1           0.000001176   -0.000002448   -0.000010088
     24        6          -0.000000861   -0.000018899   -0.000002726
     25        1           0.000011310    0.000007876    0.000001080
     26        1           0.000003209    0.000003337    0.000003396
     27        7           0.000009109    0.000022960    0.000001346
     28        6          -0.000002509    0.000006700    0.000013321
     29        1           0.000006215    0.000008144    0.000008448
     30        1          -0.000005607    0.000002614    0.000004301
     31        6          -0.000004382    0.000006059    0.000019455
     32        1           0.000006636    0.000004130    0.000011349
     33        1           0.000006104    0.000006149    0.000007690
     34        7          -0.001065658   -0.000591192    0.000288013
     35       16           0.000049691    0.000101811   -0.000086503
     36        8          -0.000026480    0.000001668   -0.000021356
     37        8           0.000022167   -0.000020863    0.000004591
     38        6           0.000018422   -0.000016425    0.000004827
     39        6          -0.000009811    0.000010845    0.000005254
     40        6          -0.000014635    0.000019508    0.000024652
     41        6          -0.000029298    0.000012033    0.000032201
     42        6          -0.000005746   -0.000013774    0.000040675
     43        6           0.000003237   -0.000018047    0.000036721
     44        1          -0.000000507    0.000026139   -0.000010917
     45        1          -0.000020164    0.000029246    0.000011881
     46        1          -0.000024443    0.000015947    0.000043524
     47        1          -0.000014377   -0.000012917    0.000053530
     48        1           0.000004253   -0.000025327    0.000039114
     49        8           0.000057167   -0.000003325   -0.000041430
     50        1           0.000940908    0.000508995   -0.000210868
     51        6           0.000009243   -0.000058255    0.000020140
     52        8          -0.000095230    0.000103031    0.000087343
     53        8          -0.000013469   -0.000001928   -0.000015611
     54        1           0.000010926    0.000000737   -0.000001864
     55        6          -0.000008183    0.000000972   -0.000004054
     56        1           0.000029157   -0.000006420   -0.000014050
     57        1          -0.000007217   -0.000020254   -0.000024410
     58        6          -0.000027541    0.000011271    0.000021689
     59        1           0.000012884    0.000026276    0.000011090
     60        1           0.000004798    0.000000922    0.000007654
     61        6           0.000002673    0.000001588   -0.000013492
     62        1           0.000009986    0.000025919   -0.000006597
     63        1           0.000006575    0.000018076   -0.000024717
     64        1          -0.000005024    0.000020262   -0.000022957
     65        6           0.000005397    0.000000118   -0.000018554
     66        1          -0.000028425   -0.000011234   -0.000017358
     67        1           0.000015833    0.000007161    0.000004249
     68        6           0.000023971   -0.000046072   -0.000026196
     69        1           0.000026014   -0.000026768   -0.000027101
     70        1           0.000056320   -0.000020014   -0.000015459
     71        1           0.000017701   -0.000043677   -0.000038650
     72        6          -0.000001347    0.000002214    0.000013325
     73        1          -0.000005379    0.000010489    0.000019728
     74        1           0.000001962    0.000016639    0.000021214
     75        6          -0.000005689    0.000007982    0.000012188
     76        1           0.000009897    0.000000612    0.000004272
     77        1          -0.000001345    0.000008904    0.000022235
 -------------------------------------------------------------------
 Cartesian Forces:  Max     0.001065658 RMS     0.000111536
 Z-matrix is all fixed cartesians, so copy forces.
 Leave Link  716 at Thu Feb  7 09:47:57 2019, MaxMem=   104857600 cpu:               2.3 elap:               0.1
 (Enter /home/xinyan/g16/l103.exe)

 GradGradGradGradGradGradGradGradGradGradGradGradGradGradGradGradGradGrad
 Berny optimization.
 Search for a local minimum.
 Step number   1 out of a maximum of    2
 All quantities printed in internal units (Hartrees-Bohrs-Radians)
 Second derivative matrix not updated -- first step.
 ITU=  0
     Eigenvalues ---   -0.00000   0.00000   0.00000   0.00000   0.00000
     Eigenvalues ---    0.00000   0.00004   0.00013   0.00018   0.00023
     Eigenvalues ---    0.00038   0.00038   0.00088   0.00094   0.00114
     Eigenvalues ---    0.00136   0.00138   0.00207   0.00234   0.00289
     Eigenvalues ---    0.00405   0.00412   0.00460   0.00501   0.00587
     Eigenvalues ---    0.00602   0.00627   0.00692   0.00713   0.00837
     Eigenvalues ---    0.00967   0.01088   0.01150   0.01569   0.01636
     Eigenvalues ---    0.01668   0.01821   0.01906   0.02040   0.02128
     Eigenvalues ---    0.02304   0.02322   0.02476   0.02519   0.02859
     Eigenvalues ---    0.02958   0.03062   0.03087   0.03283   0.03530
     Eigenvalues ---    0.03541   0.03825   0.03883   0.04184   0.04290
     Eigenvalues ---    0.04404   0.04790   0.04817   0.04846   0.04934
     Eigenvalues ---    0.05025   0.05062   0.05113   0.05140   0.05164
     Eigenvalues ---    0.05168   0.05258   0.05336   0.05477   0.05587
     Eigenvalues ---    0.05655   0.05674   0.05733   0.05745   0.05816
     Eigenvalues ---    0.05830   0.06167   0.06268   0.06551   0.06707
     Eigenvalues ---    0.06830   0.06841   0.06923   0.06975   0.07102
     Eigenvalues ---    0.07140   0.07237   0.07271   0.07334   0.07376
     Eigenvalues ---    0.07615   0.07865   0.07905   0.07967   0.08132
     Eigenvalues ---    0.08532   0.08597   0.09026   0.09113   0.09678
     Eigenvalues ---    0.09739   0.10185   0.10552   0.11280   0.11555
     Eigenvalues ---    0.11755   0.12222   0.12708   0.12747   0.12857
     Eigenvalues ---    0.12941   0.12969   0.13341   0.13713   0.13840
     Eigenvalues ---    0.14017   0.14517   0.14628   0.15291   0.16050
     Eigenvalues ---    0.16063   0.16608   0.16645   0.16968   0.17073
     Eigenvalues ---    0.17305   0.17609   0.17851   0.18056   0.19573
     Eigenvalues ---    0.19693   0.20310   0.20692   0.21498   0.21633
     Eigenvalues ---    0.23207   0.23574   0.24201   0.24802   0.26369
     Eigenvalues ---    0.27468   0.28387   0.29547   0.30069   0.31262
     Eigenvalues ---    0.31493   0.32383   0.33568   0.34683   0.35783
     Eigenvalues ---    0.36252   0.39374   0.40216   0.40725   0.43366
     Eigenvalues ---    0.43715   0.44488   0.47988   0.49348   0.50240
     Eigenvalues ---    0.53019   0.56483   0.56912   0.58821   0.64137
     Eigenvalues ---    0.65062   0.65514   0.67011   0.68152   0.68847
     Eigenvalues ---    0.70454   0.77070   0.77902   0.78589   0.81800
     Eigenvalues ---    0.82589   0.83336   0.83614   0.86320   0.87508
     Eigenvalues ---    0.88533   0.88741   0.90731   0.91363   0.92109
     Eigenvalues ---    0.94399   0.94857   0.95031   0.95872   0.96557
     Eigenvalues ---    0.98017   0.98104   0.99719   1.00409   1.00497
     Eigenvalues ---    1.00966   1.04118   1.04373   1.04827   1.06189
     Eigenvalues ---    1.06468   1.06791   1.07091   1.08856   1.09348
     Eigenvalues ---    1.14232   1.15352   1.16186   1.17699   1.19927
     Eigenvalues ---    1.21440   1.23732   1.26972   1.28698   1.37003
     Eigenvalues ---    1.47459   1.53332   1.58406   1.58981   1.59618
     Eigenvalues ---    1.67494   1.72117   1.73157   1.84234   2.36674
 Eigenvalue     1 is  -2.22D-16 should be greater than     0.000000 Eigenvector:
                          Y71       Y57       Y70       Y68       Y56
   1                    0.13440   0.13440   0.13440   0.13440   0.13440
                          Y55       Y69       Y53       Y65       Y54
   1                    0.13440   0.13440   0.13440   0.13440   0.13440
 Eigenvalue     2 is   2.42D-08 Eigenvector:
                          Y46       Y47       X54       Y41       Y42
   1                    0.26361   0.25198  -0.23060   0.21882   0.21226
                          X53       Y45       Y40       X52       Y43
   1                   -0.20376   0.17205   0.16738  -0.16098   0.15459
 Eigenvalue     3 is   6.08D-08 Eigenvector:
                          X46       X45       Z47       X41       X40
   1                    0.20749   0.19701  -0.19048   0.17061   0.16454
                          Z46       Z42       Z71       Z48       Z41
   1                   -0.15841  -0.15518   0.15063  -0.14171  -0.13733
 Eigenvalue     4 is   1.56D-07 Eigenvector:
                          Z54       Z53       Z77       Z52       Z76
   1                    0.20848   0.19413  -0.18055   0.17671  -0.17349
                          Z57       Z51       Z75       Z33       Y64
   1                    0.16767   0.15922  -0.15528  -0.14688   0.14605
 Eigenvalue     5 is   2.42D-07 Eigenvector:
                          Y69       Y71       Z69       Z71       X70
   1                    0.19443   0.18905   0.16843   0.16470  -0.16210
                          Y68       Y66       Z70       Y48       Z68
   1                    0.15748   0.15719   0.15388  -0.15153   0.14435
 Eigenvalue     6 is   3.03D-07 Eigenvector:
                          Z54       Y45       Y64       Y59       Z53
   1                    0.20929  -0.20112  -0.19910   0.18225   0.16300
                          Y46       Y62       Y61       Z70       Y63
   1                   -0.16277  -0.16083  -0.16006  -0.15836  -0.15002
 Eigenvalue     7 is   4.14D-05 Eigenvector:
                          Z70       X69       Z69       X45       X46
   1                    0.23369   0.23350   0.23275  -0.22855  -0.21691
                          X70       Y45       Z68       X68       Z71
   1                    0.21198  -0.19479   0.18967   0.18666   0.17717
 Quadratic step=1.803D+00 exceeds max=3.000D-01 adjusted using Lamda=-5.553D-04.
 Angle between NR and scaled steps=  13.62 degrees.
 Angle between quadratic step and forces=  82.47 degrees.
 Linear search not attempted -- first point.
 B after Tr=    -0.000789    0.001075    0.000879
         Rot=    1.000000   -0.000116    0.000029   -0.000047 Ang=  -0.01 deg.
 Variable       Old X    -DE/DX   Delta X   Delta X   Delta X     New X
                                 (Linear)    (Quad)   (Total)
    X1       -9.40874  -0.00001   0.00000  -0.00458  -0.00537  -9.41411
    Y1        0.46402  -0.00000   0.00000  -0.01442  -0.01406   0.44996
    Z1       -0.75570  -0.00002   0.00000  -0.02375  -0.02331  -0.77902
    X2       -9.69921  -0.00001   0.00000  -0.00002  -0.00049  -9.69970
    Y2       -1.94527  -0.00000   0.00000  -0.01854  -0.01784  -1.96311
    Z2       -2.33241  -0.00001   0.00000  -0.01847  -0.01861  -2.35102
    X3       -7.14883  -0.00000   0.00000   0.00179   0.00147  -7.14737
    Y3       -2.77000  -0.00002   0.00000  -0.01733  -0.01613  -2.78613
    Z3       -3.43367  -0.00002   0.00000  -0.01536  -0.01554  -3.44921
    X4       -5.28742   0.00002   0.00000   0.00095   0.00054  -5.28687
    Y4       -3.20949  -0.00000   0.00000  -0.00963  -0.00876  -3.21825
    Z4       -1.27683  -0.00001   0.00000  -0.01306  -0.01324  -1.29007
    X5       -4.94224   0.00004   0.00000  -0.00316  -0.00390  -4.94613
    Y5       -0.77106   0.00001   0.00000  -0.00511  -0.00457  -0.77563
    Z5        0.30164  -0.00001   0.00000  -0.01964  -0.01923   0.28241
    X6       -7.48307   0.00001   0.00000  -0.00441  -0.00528  -7.48835
    Y6        0.10828  -0.00001   0.00000  -0.00583  -0.00578   0.10250
    Z6        1.37408  -0.00002   0.00000  -0.02239  -0.02193   1.35215
    X7       -7.33724   0.00001   0.00000   0.00501   0.00491  -7.33233
    Y7       -4.48685  -0.00001   0.00000  -0.02020  -0.01876  -4.50561
    Z7       -4.57386  -0.00001   0.00000  -0.01154  -0.01214  -4.58599
    X8      -10.45748   0.00001   0.00000   0.00180   0.00141 -10.45607
    Y8       -3.46770  -0.00001   0.00000  -0.01705  -0.01669  -3.48440
    Z8       -1.14421  -0.00002   0.00000  -0.01540  -0.01594  -1.16015
    X9      -11.05157   0.00000   0.00000   0.00024  -0.00016 -11.05173
    Y9       -1.64686  -0.00001   0.00000  -0.02415  -0.02321  -1.67007
    Z9       -3.86848  -0.00001   0.00000  -0.01979  -0.01994  -3.88842
   X10       -8.77268  -0.00001   0.00000  -0.00700  -0.00786  -8.78054
   Y10        2.00935  -0.00001   0.00000  -0.01616  -0.01545   1.99390
   Z10       -1.98767  -0.00001   0.00000  -0.02714  -0.02631  -2.01398
   X11      -11.23750   0.00000   0.00000  -0.00573  -0.00661 -11.24412
   Y11        1.02631  -0.00001   0.00000  -0.01578  -0.01577   1.01054
   Z11        0.03107  -0.00002   0.00000  -0.02550  -0.02504   0.00603
   X12       -6.01524   0.00000   0.00000   0.00202   0.00168  -6.01356
   Y12       -4.69860   0.00001   0.00000  -0.00745  -0.00693  -4.70552
   Z12       -0.03834  -0.00001   0.00000  -0.00987  -0.01043  -0.04877
   X13       -4.27772  -0.00003   0.00000  -0.00561  -0.00640  -4.28412
   Y13        0.69612  -0.00003   0.00000  -0.00830  -0.00739   0.68872
   Z13       -1.00583  -0.00003   0.00000  -0.02441  -0.02362  -1.02945
   X14       -8.17409   0.00000   0.00000  -0.00250  -0.00333  -8.17741
   Y14       -1.28114  -0.00000   0.00000  -0.00308  -0.00341  -1.28455
   Z14        2.74407  -0.00001   0.00000  -0.01866  -0.01855   2.72552
   X15       -7.16800   0.00001   0.00000  -0.00691  -0.00802  -7.17601
   Y15        1.89472  -0.00000   0.00000  -0.00266  -0.00280   1.89191
   Z15        2.37367  -0.00002   0.00000  -0.02729  -0.02639   2.34728
   X16       -6.46179  -0.00001   0.00000   0.00021  -0.00018  -6.46197
   Y16       -1.25449  -0.00001   0.00000  -0.01911  -0.01756  -1.27206
   Z16       -4.67416  -0.00001   0.00000  -0.01840  -0.01819  -4.69235
   X17       -2.75874  -0.00000   0.00000   0.00326   0.00298  -2.75576
   Y17       -4.06731  -0.00001   0.00000  -0.00743  -0.00613  -4.07344
   Z17       -2.09867   0.00001   0.00000  -0.00816  -0.00839  -2.10706
   X18       -1.46580  -0.00001   0.00000   0.00583   0.00553  -1.46027
   Y18       -2.78058   0.00000   0.00000  -0.00606  -0.00421  -2.78479
   Z18       -3.90843  -0.00001   0.00000  -0.00543  -0.00528  -3.91371
   X19       -1.44065  -0.00001   0.00000   0.00169   0.00146  -1.43919
   Y19       -5.60056   0.00001   0.00000  -0.00503  -0.00397  -5.60453
   Z19       -0.51433  -0.00000   0.00000  -0.00457  -0.00508  -0.51940
   X20        1.09020   0.00001   0.00000   0.00669   0.00641   1.09662
   Y20       -2.93100  -0.00000   0.00000  -0.00241  -0.00027  -2.93128
   Z20       -4.14576  -0.00000   0.00000   0.00090   0.00116  -4.14459
   X21       -2.58235   0.00001   0.00000   0.00730   0.00696  -2.57539
   Y21       -1.57529   0.00002   0.00000  -0.00729  -0.00526  -1.58056
   Z21       -5.12675  -0.00000   0.00000  -0.00801  -0.00765  -5.13440
   X22        1.11851   0.00001   0.00000   0.00225   0.00205   1.12056
   Y22       -5.82612   0.00001   0.00000  -0.00135  -0.00003  -5.82615
   Z22       -0.61512  -0.00000   0.00000   0.00176   0.00135  -0.61377
   X23       -2.54680   0.00000   0.00000  -0.00035  -0.00057  -2.54737
   Y23       -6.56272  -0.00000   0.00000  -0.00600  -0.00537  -6.56809
   Z23        0.91767  -0.00001   0.00000  -0.00681  -0.00761   0.91006
   X24        2.53044  -0.00000   0.00000   0.00430   0.00406   2.53449
   Y24       -4.32636  -0.00002   0.00000   0.00025   0.00211  -4.32425
   Z24       -2.34186  -0.00000   0.00000   0.00490   0.00492  -2.33694
   X25        2.00927   0.00001   0.00000   0.00882   0.00853   2.01780
   Y25       -1.85501   0.00001   0.00000  -0.00113   0.00144  -1.85357
   Z25       -5.62137   0.00000   0.00000   0.00313   0.00370  -5.61767
   X26        2.03563   0.00000   0.00000   0.00053   0.00036   2.03599
   Y26       -6.99350   0.00000   0.00000   0.00058   0.00166  -6.99184
   Z26        0.78751   0.00000   0.00000   0.00449   0.00387   0.79137
   X27        5.03805   0.00001   0.00000   0.00401   0.00375   5.04180
   Y27       -4.25056   0.00002   0.00000   0.00440   0.00648  -4.24408
   Z27       -2.27837   0.00000   0.00000   0.01184   0.01203  -2.26634
   X28        6.42858  -0.00000   0.00000  -0.00072  -0.00101   6.42757
   Y28       -5.23430   0.00001   0.00000   0.00692   0.00862  -5.22568
   Z28       -0.08007   0.00001   0.00000   0.01597   0.01601  -0.06406
   X29        6.17721   0.00001   0.00000   0.00201   0.00190   6.17911
   Y29       -7.27894   0.00001   0.00000   0.00656   0.00820  -7.27074
   Z29        0.08846   0.00001   0.00000   0.01560   0.01515   0.10360
   X30        5.71149  -0.00001   0.00000  -0.00710  -0.00758   5.70390
   Y30       -4.26857   0.00000   0.00000   0.00608   0.00731  -4.26126
   Z30        1.61330   0.00000   0.00000   0.01373   0.01395   1.62725
   X31        6.48361  -0.00000   0.00000   0.00457   0.00419   6.48781
   Y31       -2.24936   0.00001   0.00000   0.00641   0.00893  -2.24043
   Z31       -3.56563   0.00002   0.00000   0.01563   0.01637  -3.54926
   X32        6.98891   0.00001   0.00000   0.01071   0.01051   6.99942
   Y32       -2.86626   0.00000   0.00000   0.00690   0.00990  -2.85636
   Z32       -5.47953   0.00001   0.00000   0.01710   0.01773  -5.46180
   X33        5.34794   0.00001   0.00000   0.00227   0.00174   5.34969
   Y33       -0.52729   0.00001   0.00000   0.00478   0.00720  -0.52009
   Z33       -3.62650   0.00001   0.00000   0.01230   0.01337  -3.61313
   X34       -2.90339  -0.00107   0.00000  -0.00238  -0.00319  -2.90659
   Y34       -1.01250  -0.00059   0.00000   0.00294   0.00325  -1.00924
   Z34        2.12192   0.00029   0.00000  -0.01959  -0.01911   2.10281
   X35       -2.94247   0.00005   0.00000  -0.00028  -0.00108  -2.94356
   Y35       -2.71276   0.00010   0.00000   0.01518   0.01489  -2.69787
   Z35        4.69147  -0.00009   0.00000  -0.01176  -0.01168   4.67979
   X36       -5.25125  -0.00003   0.00000  -0.00171  -0.00237  -5.25361
   Y36       -4.23748   0.00000   0.00000   0.01688   0.01639  -4.22109
   Z36        4.62679  -0.00002   0.00000  -0.00208  -0.00249   4.62430
   X37       -0.52051   0.00002   0.00000  -0.00112  -0.00181  -0.52232
   Y37       -4.02198  -0.00002   0.00000   0.01420   0.01408  -4.00790
   Z37        4.94585   0.00000   0.00000  -0.00837  -0.00845   4.93740
   X38       -1.29068   0.00002   0.00000  -0.00330  -0.00454  -1.29522
   Y38        4.61577  -0.00002   0.00000   0.01126   0.01215   4.62792
   Z38        0.23002   0.00000   0.00000   0.02694   0.02882   0.25883
   X39       -0.32658  -0.00001   0.00000  -0.01109  -0.01210  -0.33868
   Y39        3.49760   0.00001   0.00000   0.02171   0.02321   3.52081
   Z39       -1.96864   0.00001   0.00000   0.01815   0.01983  -1.94881
   X40       -1.66772  -0.00001   0.00000  -0.02607  -0.02696  -1.69468
   Y40        3.65974   0.00002   0.00000   0.02033   0.02222   3.68196
   Z40       -4.23136   0.00002   0.00000   0.02693   0.02857  -4.20280
   X41       -3.99783  -0.00003   0.00000  -0.03359  -0.03459  -4.03242
   Y41        4.88778   0.00001   0.00000   0.00759   0.00928   4.89706
   Z41       -4.33696   0.00003   0.00000   0.04473   0.04651  -4.29044
   X42       -4.98045  -0.00001   0.00000  -0.02599  -0.02723  -5.00767
   Y42        5.97639  -0.00001   0.00000  -0.00377  -0.00269   5.97371
   Z42       -2.14932   0.00004   0.00000   0.05376   0.05573  -2.09358
   X43       -3.62667   0.00000   0.00000  -0.01085  -0.01220  -3.63886
   Y43        5.84237  -0.00002   0.00000  -0.00159  -0.00089   5.84148
   Z43        0.10779   0.00004   0.00000   0.04474   0.04677   0.15456
   X44        1.42948  -0.00000   0.00000  -0.00413  -0.00504   1.42444
   Y44        2.42858   0.00003   0.00000   0.03129   0.03292   2.46150
   Z44       -1.82599  -0.00001   0.00000   0.00419   0.00572  -1.82026
   X45       -0.87829  -0.00002   0.00000  -0.03195  -0.03266  -0.91095
   Y45        2.82284   0.00003   0.00000   0.02950   0.03186   2.85469
   Z45       -5.93616   0.00001   0.00000   0.01971   0.02120  -5.91496
   X46       -5.03279  -0.00002   0.00000  -0.04530  -0.04621  -5.07900
   Y46        5.00776   0.00002   0.00000   0.00663   0.00863   5.01638
   Z46       -6.10612   0.00004   0.00000   0.05155   0.05329  -6.05283
   X47       -6.79581  -0.00001   0.00000  -0.03184  -0.03316  -6.82898
   Y47        6.93420  -0.00001   0.00000  -0.01416  -0.01323   6.92097
   Z47       -2.20064   0.00005   0.00000   0.06783   0.06992  -2.13073
   X48       -4.40342   0.00000   0.00000  -0.00489  -0.00642  -4.40984
   Y48        6.70021  -0.00003   0.00000  -0.01047  -0.01025   6.68997
   Z48        1.80777   0.00004   0.00000   0.05192   0.05410   1.86187
   X49        0.98791   0.00006   0.00000   0.01089   0.00970   0.99761
   Y49        2.11706  -0.00000   0.00000   0.01386   0.01422   2.13128
   Z49        3.46117  -0.00004   0.00000   0.01813   0.01956   3.48072
   X50       -1.25786   0.00094   0.00000   0.00063  -0.00027  -1.25813
   Y50        0.03031   0.00051   0.00000   0.00173   0.00224   0.03255
   Z50        1.95407  -0.00021   0.00000  -0.02753  -0.02672   1.92736
   X51        3.61837   0.00001   0.00000  -0.00294  -0.00397   3.61440
   Y51        0.97219  -0.00006   0.00000  -0.00068   0.00014   0.97233
   Z51        2.58309   0.00002   0.00000  -0.00297  -0.00165   2.58143
   X52        3.38730  -0.00010   0.00000  -0.02790  -0.02871   3.35859
   Y52       -0.05452   0.00010   0.00000   0.00359   0.00489  -0.04963
   Z52        0.39261   0.00009   0.00000  -0.00216  -0.00109   0.39152
   X53        4.01937  -0.00001   0.00000   0.00247   0.00149   4.02086
   Y53       -0.71817  -0.00000   0.00000  -0.00551  -0.00512  -0.72330
   Z53        4.60539  -0.00002   0.00000  -0.00812  -0.00717   4.59822
   X54        2.73328   0.00001   0.00000  -0.00699  -0.00785   2.72543
   Y54       -2.02193   0.00000   0.00000   0.00258   0.00289  -2.01904
   Z54        4.41179  -0.00000   0.00000   0.00044   0.00100   4.41280
   X55        5.61878  -0.00001   0.00000   0.01347   0.01223   5.63101
   Y55        3.06657   0.00000   0.00000  -0.01430  -0.01335   3.05322
   Z55        2.88002  -0.00000   0.00000  -0.01743  -0.01551   2.86451
   X56        5.13546   0.00003   0.00000   0.03501   0.03356   5.16902
   Y56        4.29705  -0.00001   0.00000  -0.01111  -0.01058   4.28647
   Z56        4.47755  -0.00001   0.00000  -0.01339  -0.01121   4.46634
   X57        7.37571  -0.00001   0.00000   0.01042   0.00923   7.38495
   Y57        2.10300  -0.00002   0.00000  -0.02750  -0.02651   2.07649
   Z57        3.41748  -0.00002   0.00000  -0.03124  -0.02945   3.38803
   X58        0.14902  -0.00003   0.00000   0.01292   0.01154   0.16056
   Y58        4.51372   0.00001   0.00000   0.01432   0.01477   4.52850
   Z58        2.72404   0.00002   0.00000   0.01764   0.01958   2.74362
   X59       -1.13321   0.00001   0.00000   0.02464   0.02311  -1.11010
   Y59        5.20211   0.00003   0.00000   0.02139   0.02138   5.22349
   Z59        4.21142   0.00001   0.00000   0.02449   0.02651   4.23794
   X60        1.72077   0.00000   0.00000   0.01584   0.01434   1.73510
   Y60        5.87138   0.00000   0.00000   0.01021   0.01083   5.88221
   Z60        2.65733   0.00001   0.00000   0.00354   0.00588   2.66321
   X61       -3.06563   0.00000   0.00000   0.00451   0.00334  -3.06228
   Y61       -0.47820   0.00000   0.00000   0.02709   0.02621  -0.45198
   Z61        7.19982  -0.00001   0.00000  -0.02217  -0.02158   7.17824
   X62       -1.40718   0.00001   0.00000   0.00578   0.00452  -1.40267
   Y62        0.73219   0.00003   0.00000   0.02401   0.02334   0.75554
   Z62        6.94818  -0.00001   0.00000  -0.02893  -0.02796   6.92023
   X63       -4.82294   0.00001   0.00000   0.00569   0.00444  -4.81850
   Y63        0.58833   0.00002   0.00000   0.02847   0.02746   0.61579
   Z63        7.04148  -0.00002   0.00000  -0.02590  -0.02516   7.01632
   X64       -2.98023  -0.00001   0.00000   0.00452   0.00335  -2.97688
   Y64       -1.51377   0.00002   0.00000   0.03525   0.03396  -1.47980
   Z64        8.98081  -0.00002   0.00000  -0.01747  -0.01710   8.96371
   X65        6.09465   0.00001   0.00000   0.00725   0.00600   6.10065
   Y65        4.60209   0.00000   0.00000  -0.01782  -0.01627   4.58582
   Z65        0.48388  -0.00002   0.00000  -0.02098  -0.01868   0.46520
   X66        6.72699  -0.00003   0.00000  -0.02254  -0.02358   6.70341
   Y66        3.31777  -0.00001   0.00000  -0.02408  -0.02213   3.29565
   Z66       -1.01272  -0.00002   0.00000  -0.02817  -0.02613  -1.03886
   X67        4.33486   0.00002   0.00000   0.00995   0.00866   4.34352
   Y67        5.43506   0.00001   0.00000   0.00314   0.00468   5.43974
   Z67       -0.22518   0.00000   0.00000  -0.00299  -0.00059  -0.22577
   X68        8.04413   0.00002   0.00000   0.03637   0.03491   8.07904
   Y68        6.68670  -0.00005   0.00000  -0.04139  -0.03975   6.64695
   Z68        0.90646  -0.00003   0.00000  -0.03909  -0.03620   0.87027
   X69        8.42570   0.00003   0.00000   0.03145   0.02998   8.45568
   Y69        7.74555  -0.00003   0.00000  -0.04451  -0.04244   7.70312
   Z69       -0.82863  -0.00003   0.00000  -0.04209  -0.03893  -0.86756
   X70        7.38688   0.00006   0.00000   0.06738   0.06571   7.45259
   Y70        8.03185  -0.00002   0.00000  -0.03471  -0.03346   7.99838
   Z70        2.33719  -0.00002   0.00000  -0.03114  -0.02797   2.30923
   X71        9.83608   0.00002   0.00000   0.03377   0.03234   9.86842
   Y71        5.89710  -0.00004   0.00000  -0.06357  -0.06191   5.83519
   Z71        1.57955  -0.00004   0.00000  -0.05819  -0.05538   1.52417
   X72        9.15013  -0.00000   0.00000  -0.00031  -0.00065   9.14948
   Y72       -4.46847   0.00000   0.00000   0.01094   0.01302  -4.45544
   Z72       -0.62918   0.00001   0.00000   0.02370   0.02408  -0.60511
   X73       10.28621  -0.00001   0.00000  -0.00550  -0.00594  10.28028
   Y73       -4.39246   0.00001   0.00000   0.01318   0.01497  -4.37749
   Z73        1.09084   0.00002   0.00000   0.02703   0.02749   1.11833
   X74       10.02660   0.00000   0.00000   0.00559   0.00546  10.03207
   Y74       -5.80959   0.00002   0.00000   0.01193   0.01440  -5.79519
   Z74       -1.94133   0.00002   0.00000   0.02668   0.02680  -1.91454
   X75        8.79960  -0.00001   0.00000  -0.00054  -0.00104   8.79856
   Y75       -1.88426   0.00001   0.00000   0.01002   0.01236  -1.87191
   Z75       -1.87385   0.00001   0.00000   0.02188   0.02284  -1.85102
   X76        8.30268   0.00001   0.00000  -0.00625  -0.00697   8.29571
   Y76       -0.49853   0.00000   0.00000   0.00977   0.01172  -0.48681
   Z76       -0.42334   0.00000   0.00000   0.02011   0.02136  -0.40198
   X77       10.45217  -0.00000   0.00000   0.00146   0.00096  10.45312
   Y77       -1.23238   0.00001   0.00000   0.01198   0.01472  -1.21767
   Z77       -2.92429   0.00002   0.00000   0.02626   0.02747  -2.89683
         Item               Value     Threshold  Converged?
 Maximum Force            0.001066     0.000450     NO 
 RMS     Force            0.000112     0.000300     YES
 Maximum Displacement     0.069917     0.001800     NO 
 RMS     Displacement     0.019706     0.001200     NO 
 Predicted change in Energy=-6.191099D-05
 GradGradGradGradGradGradGradGradGradGradGradGradGradGradGradGradGradGrad

 Leave Link  103 at Thu Feb  7 09:47:58 2019, MaxMem=   104857600 cpu:              31.3 elap:               1.4
 (Enter /home/xinyan/g16/l9999.exe)
 1\1\GINC-TSE4\Force\RM062X\6-31G(d)\C27H41N3O5S1\STEVETSE\07-Feb-2019\
 0\\#p M062X/6-31G* em=gd3 force int=ultrafine\\Title\\0,1\C,-4.97889,0
 .24555,-0.3999\C,-5.1326,-1.02939,-1.23426\C,-3.783,-1.46582,-1.81702\
 C,-2.79798,-1.69839,-0.67567\C,-2.61532,-0.40803,0.15962\C,-3.95987,0.
 0573,0.72713\H,-3.8827,-2.37434,-2.42038\H,-5.53386,-1.83503,-0.60549\
 H,-5.84824,-0.87148,-2.04711\H,-4.6423,1.0633,-1.05183\H,-5.94663,0.54
 31,0.01644\H,-3.18313,-2.48639,-0.02029\H,-2.26367,0.36837,-0.53226\H,
 -4.32554,-0.67795,1.4521\H,-3.79314,1.00264,1.25609\H,-3.41943,-0.6638
 5,-2.47346\N,-1.45986,-2.15233,-1.11057\C,-0.77567,-1.47142,-2.06825\C
 ,-0.76236,-2.96369,-0.27217\C,0.57691,-1.55102,-2.19384\H,-1.36652,-0.
 83361,-2.71296\C,0.59189,-3.08305,-0.32551\H,-1.34771,-3.47284,0.48561
 \C,1.33905,-2.28941,-1.23926\H,1.06326,-0.98163,-2.9747\H,1.07721,-3.7
 008,0.41673\N,2.66602,-2.2493,-1.20566\C,3.40186,-2.76987,-0.04237\H,3
 .26884,-3.85185,0.04681\H,3.02239,-2.25883,0.85372\C,3.43098,-1.19031,
 -1.88685\H,3.69837,-1.51676,-2.89964\H,2.83001,-0.27903,-1.91906\N,-1.
 53641,-0.53579,1.12287\S,-1.55709,-1.43553,2.48262\O,-2.77884,-2.24238
 ,2.44839\O,-0.27544,-2.12834,2.61723\C,-0.683,2.44256,0.12172\C,-0.172
 82,1.85085,-1.04176\C,-0.88252,1.93665,-2.23914\C,-2.11556,2.5865,-2.2
 9502\C,-2.63554,3.16257,-1.13737\C,-1.91915,3.09165,0.05704\H,0.75645,
 1.28515,-0.96627\H,-0.46477,1.49378,-3.14128\H,-2.66324,2.64999,-3.231
 22\H,-3.59619,3.66942,-1.16453\H,-2.33019,3.5456,0.95663\O,0.52278,1.1
 203,1.83157\H,-0.66563,0.01604,1.03405\C,1.91476,0.51446,1.36691\O,1.7
 9248,-0.02885,0.20776\O,2.12696,-0.38004,2.43707\H,1.44639,-1.06996,2.
 33462\C,2.97333,1.62276,1.52404\H,2.71757,2.2739,2.36942\H,3.90306,1.1
 1286,1.80845\C,0.07886,2.38856,1.4415\H,-0.59967,2.75284,2.22859\H,0.9
 1059,3.107,1.4062\C,-1.62226,-0.25305,3.80998\H,-0.74465,0.38746,3.676
 82\H,-2.55219,0.31133,3.72619\H,-1.57707,-0.80105,4.75244\C,3.22515,2.
 43532,0.25606\H,3.55977,1.75569,-0.53591\H,2.29391,2.87611,-0.11916\C,
 4.25677,3.53845,0.47968\H,4.45869,4.09877,-0.43849\H,3.90897,4.25027,1
 .23679\H,5.20503,3.12061,0.83586\C,4.84204,-2.36461,-0.33295\H,5.44323
 ,-2.32439,0.57725\H,5.30585,-3.0743,-1.02731\C,4.65655,-0.99711,-0.991
 6\H,4.39359,-0.26381,-0.22402\H,5.53105,-0.65215,-1.54747\\Version=ES6
 4L-G16RevA.03\State=1-A\HF=-1991.3555947\RMSD=4.934e-09\RMSF=1.115e-04
 \Dipole=-1.3818359,-0.5904008,-2.2616501\Quadrupole=6.1517863,-4.96034
 91,-1.1914372,-9.8818908,-3.2497874,7.8774553\PG=C01 [X(C27H41N3O5S1)]
 \\@


 A SCIENTIST IS SOMEONE WHOSE CURIOSITY SURVIVES
 EDUCATION'S ASSAULTS ON IT.
                          - SIR HERMANN BONDI
 Job cpu time:       0 days  1 hours 20 minutes 37.9 seconds.
 Elapsed time:       0 days  0 hours  3 minutes 23.6 seconds.
 File lengths (MBytes):  RWF=    216 Int=      0 D2E=      0 Chk=     25 Scr=      1
 Normal termination of Gaussian 16 at Thu Feb  7 09:47:59 2019.
