 Entering Gaussian System, Link 0=g16
 Input=C27N3H41SO5-269.gjf
 Output=C27N3H41SO5-269.log
 Initial command:
 /home/xinyan/g16/l1.exe "/local/home/tmp/Gau-9786.inp" -scrdir="/local/home/tmp/"
 Entering Link 1 = /home/xinyan/g16/l1.exe PID=      9787.
  
 Copyright (c) 1988,1990,1992,1993,1995,1998,2003,2009,2016,
            Gaussian, Inc.  All Rights Reserved.
  
 This is part of the Gaussian(R) 16 program.  It is based on
 the Gaussian(R) 09 system (copyright 2009, Gaussian, Inc.),
 the Gaussian(R) 03 system (copyright 2003, Gaussian, Inc.),
 the Gaussian(R) 98 system (copyright 1998, Gaussian, Inc.),
 the Gaussian(R) 94 system (copyright 1995, Gaussian, Inc.),
 the Gaussian 92(TM) system (copyright 1992, Gaussian, Inc.),
 the Gaussian 90(TM) system (copyright 1990, Gaussian, Inc.),
 the Gaussian 88(TM) system (copyright 1988, Gaussian, Inc.),
 the Gaussian 86(TM) system (copyright 1986, Carnegie Mellon
 University), and the Gaussian 82(TM) system (copyright 1983,
 Carnegie Mellon University). Gaussian is a federally registered
 trademark of Gaussian, Inc.
  
 This software contains proprietary and confidential information,
 including trade secrets, belonging to Gaussian, Inc.
  
 This software is provided under written license and may be
 used, copied, transmitted, or stored only in accord with that
 written license.
  
 The following legend is applicable only to US Government
 contracts under FAR:
  
                    RESTRICTED RIGHTS LEGEND
  
 Use, reproduction and disclosure by the US Government is
 subject to restrictions as set forth in subparagraphs (a)
 and (c) of the Commercial Computer Software - Restricted
 Rights clause in FAR 52.227-19.
  
 Gaussian, Inc.
 340 Quinnipiac St., Bldg. 40, Wallingford CT 06492
  
  
 ---------------------------------------------------------------
 Warning -- This program may not be used in any manner that
 competes with the business of Gaussian, Inc. or will provide
 assistance to any competitor of Gaussian, Inc.  The licensee
 of this program is prohibited from giving any competitor of
 Gaussian, Inc. access to this program.  By using this program,
 the user acknowledges that Gaussian, Inc. is engaged in the
 business of creating and licensing software in the field of
 computational chemistry and represents and warrants to the
 licensee that it is not a competitor of Gaussian, Inc. and that
 it will not use this program in any manner prohibited above.
 ---------------------------------------------------------------
  

 Cite this work as:
 Gaussian 16, Revision A.03,
 M. J. Frisch, G. W. Trucks, H. B. Schlegel, G. E. Scuseria, 
 M. A. Robb, J. R. Cheeseman, G. Scalmani, V. Barone, 
 G. A. Petersson, H. Nakatsuji, X. Li, M. Caricato, A. V. Marenich, 
 J. Bloino, B. G. Janesko, R. Gomperts, B. Mennucci, H. P. Hratchian, 
 J. V. Ortiz, A. F. Izmaylov, J. L. Sonnenberg, D. Williams-Young, 
 F. Ding, F. Lipparini, F. Egidi, J. Goings, B. Peng, A. Petrone, 
 T. Henderson, D. Ranasinghe, V. G. Zakrzewski, J. Gao, N. Rega, 
 G. Zheng, W. Liang, M. Hada, M. Ehara, K. Toyota, R. Fukuda, 
 J. Hasegawa, M. Ishida, T. Nakajima, Y. Honda, O. Kitao, H. Nakai, 
 T. Vreven, K. Throssell, J. A. Montgomery, Jr., J. E. Peralta, 
 F. Ogliaro, M. J. Bearpark, J. J. Heyd, E. N. Brothers, K. N. Kudin, 
 V. N. Staroverov, T. A. Keith, R. Kobayashi, J. Normand, 
 K. Raghavachari, A. P. Rendell, J. C. Burant, S. S. Iyengar, 
 J. Tomasi, M. Cossi, J. M. Millam, M. Klene, C. Adamo, R. Cammi, 
 J. W. Ochterski, R. L. Martin, K. Morokuma, O. Farkas, 
 J. B. Foresman, and D. J. Fox, Gaussian, Inc., Wallingford CT, 2016.
 
 ******************************************
 Gaussian 16:  ES64L-G16RevA.03 25-Dec-2016
                 7-Feb-2019 
 ******************************************
 %nproc=24
 Will use up to   24 processors via shared memory.
 ------------------------------------------
 #p M062X/6-31G* em=gd3 force int=ultrafine
 ------------------------------------------
 1/10=7,30=1,38=1/1,3;
 2/12=2,17=6,18=5,40=1/2;
 3/5=1,6=6,7=1,11=2,25=1,30=1,71=1,74=-55,75=-5,124=31/1,2,3;
 4//1;
 5/5=2,38=5/2;
 6/7=2,8=2,9=2,10=2,28=1/1;
 7/29=1/1,2,3,16;
 1/10=7,30=1/3;
 99//99;
 Leave Link    1 at Thu Feb  7 23:27:57 2019, MaxMem=           0 cpu:               2.5 elap:               0.1
 (Enter /home/xinyan/g16/l101.exe)
 -----
 Title
 -----
 Symbolic Z-matrix:
 Charge =  0 Multiplicity = 1
 C                    -4.95097   0.23826  -0.2972 
 C                    -5.09908  -1.0192   -1.15908 
 C                    -3.7483   -1.43633  -1.75335 
 C                    -2.75775  -1.66615  -0.61633 
 C                    -2.55495  -0.37422   0.2264 
 C                    -3.91286   0.04167   0.81189 
 H                    -3.84669  -2.34054  -2.36502 
 H                    -5.49342  -1.84081  -0.54684 
 H                    -5.81785  -0.84947  -1.96759 
 H                    -4.63011   1.07244  -0.93708 
 H                    -5.92027   0.51647   0.13007 
 H                    -3.1341   -2.45574   0.04001 
 H                    -2.27699   0.40461  -0.49965 
 H                    -4.25053  -0.7224    1.52361 
 H                    -3.76559   0.97632   1.36619 
 H                    -3.39878  -0.62451  -2.406 
 N                    -1.42394  -2.12675  -1.06818 
 C                    -0.75799  -1.46648  -2.0435 
 C                    -0.72899  -2.94823  -0.24628 
 C                     0.59141  -1.58595  -2.21392 
 H                    -1.35312  -0.81403  -2.66935 
 C                     0.62238  -3.1146   -0.35114 
 H                    -1.30309  -3.42459   0.54122 
 C                     1.35585  -2.35614  -1.29409 
 H                     1.06664  -1.03573  -3.01532 
 H                     1.11165  -3.74026   0.38209 
 N                     2.69603  -2.35135  -1.30025 
 C                     3.44649  -2.91888  -0.1728 
 H                     3.31837  -4.0044   -0.12919 
 H                     3.07578  -2.4771    0.76277 
 C                     3.46765  -1.30783  -1.99247 
 H                     3.71179  -1.63184  -3.0115 
 H                     2.88656  -0.38257  -2.02957 
 N                    -1.4314   -0.44773   1.13591 
 S                    -1.46245  -1.40981   2.38815 
 O                    -2.54203  -2.42129   2.34665 
 O                    -0.10229  -1.97337   2.60804 
 C                    -0.94476   2.69258   0.082 
 C                    -0.30643   1.99579  -0.95063 
 C                    -0.8756    1.96416  -2.22173 
 C                    -2.10026   2.58584  -2.46922 
 C                    -2.7532    3.25048  -1.43391 
 C                    -2.17187   3.30434  -0.16907 
 H                     0.60998   1.44687  -0.74032 
 H                    -0.36137   1.44544  -3.02779 
 H                    -2.54378   2.55293  -3.45996 
 H                    -3.71402   3.72623  -1.60696 
 H                    -2.68098   3.81952   0.64239 
 O                     0.26125   1.55982   1.85797 
 H                    -0.32812   0.81625   1.53114 
 C                     2.36956   0.2081    1.3721 
 O                     2.00903  -0.1653    0.26953 
 O                     2.12303  -0.45731   2.48955 
 H                     1.36669  -1.09338   2.36066 
 C                     3.20024   1.44899   1.60235 
 H                     2.73168   1.99272   2.42822 
 H                     4.19376   1.13596   1.9527 
 C                    -0.32575   2.7645    1.46196 
 H                    -1.09181   3.10337   2.1788 
 H                     0.46865   3.52597   1.46729 
 C                    -1.74284  -0.37758   3.82419 
 H                    -0.96796   0.39287   3.8156 
 H                    -2.73382   0.07163   3.73434 
 H                    -1.67459  -0.99251   4.72254 
 C                     3.30744   2.32153   0.35789 
 H                     3.69634   1.72532  -0.47642 
 H                     2.29998   2.63307   0.05974 
 C                     4.18847   3.54676   0.58159 
 H                     4.26779   4.15062  -0.32703 
 H                     3.78074   4.18397   1.37335 
 H                     5.20119   3.25476   0.88023 
 C                     4.88729  -2.50241  -0.45542 
 H                     5.48389  -2.45926   0.45801 
 H                     5.35822  -3.21306  -1.14217 
 C                     4.7188   -1.13694  -1.12605 
 H                     4.5166   -0.37631  -0.36682 
 H                     5.58948  -0.82778  -1.70796 
 
 ITRead=  0  0  0  0  0  0  0  0  0  0  0  0  0  0  0  0  0  0  0  0
 ITRead=  0  0  0  0  0  0  0  0  0  0  0  0  0  0  0  0  0  0  0  0
 ITRead=  0  0  0  0  0  0  0  0  0  0  0  0  0  0  0  0  0  0  0  0
 ITRead=  0  0  0  0  0  0  0  0  0  0  0  0  0  0  0  0  0
 MicOpt= -1 -1 -1 -1 -1 -1 -1 -1 -1 -1 -1 -1 -1 -1 -1 -1 -1 -1 -1 -1
 MicOpt= -1 -1 -1 -1 -1 -1 -1 -1 -1 -1 -1 -1 -1 -1 -1 -1 -1 -1 -1 -1
 MicOpt= -1 -1 -1 -1 -1 -1 -1 -1 -1 -1 -1 -1 -1 -1 -1 -1 -1 -1 -1 -1
 MicOpt= -1 -1 -1 -1 -1 -1 -1 -1 -1 -1 -1 -1 -1 -1 -1 -1 -1
 NAtoms=     77 NQM=       77 NQMF=       0 NMMI=      0 NMMIF=      0
                NMic=       0 NMicF=      0.
                    Isotopes and Nuclear Properties:
 (Nuclear quadrupole moments (NQMom) in fm**2, nuclear magnetic moments (NMagM)
  in nuclear magnetons)

  Atom         1           2           3           4           5           6           7           8           9          10
 IAtWgt=          12          12          12          12          12          12           1           1           1           1
 AtmWgt=  12.0000000  12.0000000  12.0000000  12.0000000  12.0000000  12.0000000   1.0078250   1.0078250   1.0078250   1.0078250
 NucSpn=           0           0           0           0           0           0           1           1           1           1
 AtZEff=  -0.0000000  -0.0000000  -0.0000000  -0.0000000  -0.0000000  -0.0000000  -0.0000000  -0.0000000  -0.0000000  -0.0000000
 NQMom=    0.0000000   0.0000000   0.0000000   0.0000000   0.0000000   0.0000000   0.0000000   0.0000000   0.0000000   0.0000000
 NMagM=    0.0000000   0.0000000   0.0000000   0.0000000   0.0000000   0.0000000   2.7928460   2.7928460   2.7928460   2.7928460
 AtZNuc=   6.0000000   6.0000000   6.0000000   6.0000000   6.0000000   6.0000000   1.0000000   1.0000000   1.0000000   1.0000000

  Atom        11          12          13          14          15          16          17          18          19          20
 IAtWgt=           1           1           1           1           1           1          14          12          12          12
 AtmWgt=   1.0078250   1.0078250   1.0078250   1.0078250   1.0078250   1.0078250  14.0030740  12.0000000  12.0000000  12.0000000
 NucSpn=           1           1           1           1           1           1           2           0           0           0
 AtZEff=  -0.0000000  -0.0000000  -0.0000000  -0.0000000  -0.0000000  -0.0000000  -0.0000000  -0.0000000  -0.0000000  -0.0000000
 NQMom=    0.0000000   0.0000000   0.0000000   0.0000000   0.0000000   0.0000000   2.0440000   0.0000000   0.0000000   0.0000000
 NMagM=    2.7928460   2.7928460   2.7928460   2.7928460   2.7928460   2.7928460   0.4037610   0.0000000   0.0000000   0.0000000
 AtZNuc=   1.0000000   1.0000000   1.0000000   1.0000000   1.0000000   1.0000000   7.0000000   6.0000000   6.0000000   6.0000000

  Atom        21          22          23          24          25          26          27          28          29          30
 IAtWgt=           1          12           1          12           1           1          14          12           1           1
 AtmWgt=   1.0078250  12.0000000   1.0078250  12.0000000   1.0078250   1.0078250  14.0030740  12.0000000   1.0078250   1.0078250
 NucSpn=           1           0           1           0           1           1           2           0           1           1
 AtZEff=  -0.0000000  -0.0000000  -0.0000000  -0.0000000  -0.0000000  -0.0000000  -0.0000000  -0.0000000  -0.0000000  -0.0000000
 NQMom=    0.0000000   0.0000000   0.0000000   0.0000000   0.0000000   0.0000000   2.0440000   0.0000000   0.0000000   0.0000000
 NMagM=    2.7928460   0.0000000   2.7928460   0.0000000   2.7928460   2.7928460   0.4037610   0.0000000   2.7928460   2.7928460
 AtZNuc=   1.0000000   6.0000000   1.0000000   6.0000000   1.0000000   1.0000000   7.0000000   6.0000000   1.0000000   1.0000000

  Atom        31          32          33          34          35          36          37          38          39          40
 IAtWgt=          12           1           1          14          32          16          16          12          12          12
 AtmWgt=  12.0000000   1.0078250   1.0078250  14.0030740  31.9720718  15.9949146  15.9949146  12.0000000  12.0000000  12.0000000
 NucSpn=           0           1           1           2           0           0           0           0           0           0
 AtZEff=  -0.0000000  -0.0000000  -0.0000000  -0.0000000  -0.0000000  -0.0000000  -0.0000000  -0.0000000  -0.0000000  -0.0000000
 NQMom=    0.0000000   0.0000000   0.0000000   2.0440000   0.0000000   0.0000000   0.0000000   0.0000000   0.0000000   0.0000000
 NMagM=    0.0000000   2.7928460   2.7928460   0.4037610   0.0000000   0.0000000   0.0000000   0.0000000   0.0000000   0.0000000
 AtZNuc=   6.0000000   1.0000000   1.0000000   7.0000000  16.0000000   8.0000000   8.0000000   6.0000000   6.0000000   6.0000000

  Atom        41          42          43          44          45          46          47          48          49          50
 IAtWgt=          12          12          12           1           1           1           1           1          16           1
 AtmWgt=  12.0000000  12.0000000  12.0000000   1.0078250   1.0078250   1.0078250   1.0078250   1.0078250  15.9949146   1.0078250
 NucSpn=           0           0           0           1           1           1           1           1           0           1
 AtZEff=  -0.0000000  -0.0000000  -0.0000000  -0.0000000  -0.0000000  -0.0000000  -0.0000000  -0.0000000  -0.0000000  -0.0000000
 NQMom=    0.0000000   0.0000000   0.0000000   0.0000000   0.0000000   0.0000000   0.0000000   0.0000000   0.0000000   0.0000000
 NMagM=    0.0000000   0.0000000   0.0000000   2.7928460   2.7928460   2.7928460   2.7928460   2.7928460   0.0000000   2.7928460
 AtZNuc=   6.0000000   6.0000000   6.0000000   1.0000000   1.0000000   1.0000000   1.0000000   1.0000000   8.0000000   1.0000000

  Atom        51          52          53          54          55          56          57          58          59          60
 IAtWgt=          12          16          16           1          12           1           1          12           1           1
 AtmWgt=  12.0000000  15.9949146  15.9949146   1.0078250  12.0000000   1.0078250   1.0078250  12.0000000   1.0078250   1.0078250
 NucSpn=           0           0           0           1           0           1           1           0           1           1
 AtZEff=  -0.0000000  -0.0000000  -0.0000000  -0.0000000  -0.0000000  -0.0000000  -0.0000000  -0.0000000  -0.0000000  -0.0000000
 NQMom=    0.0000000   0.0000000   0.0000000   0.0000000   0.0000000   0.0000000   0.0000000   0.0000000   0.0000000   0.0000000
 NMagM=    0.0000000   0.0000000   0.0000000   2.7928460   0.0000000   2.7928460   2.7928460   0.0000000   2.7928460   2.7928460
 AtZNuc=   6.0000000   8.0000000   8.0000000   1.0000000   6.0000000   1.0000000   1.0000000   6.0000000   1.0000000   1.0000000

  Atom        61          62          63          64          65          66          67          68          69          70
 IAtWgt=          12           1           1           1          12           1           1          12           1           1
 AtmWgt=  12.0000000   1.0078250   1.0078250   1.0078250  12.0000000   1.0078250   1.0078250  12.0000000   1.0078250   1.0078250
 NucSpn=           0           1           1           1           0           1           1           0           1           1
 AtZEff=  -0.0000000  -0.0000000  -0.0000000  -0.0000000  -0.0000000  -0.0000000  -0.0000000  -0.0000000  -0.0000000  -0.0000000
 NQMom=    0.0000000   0.0000000   0.0000000   0.0000000   0.0000000   0.0000000   0.0000000   0.0000000   0.0000000   0.0000000
 NMagM=    0.0000000   2.7928460   2.7928460   2.7928460   0.0000000   2.7928460   2.7928460   0.0000000   2.7928460   2.7928460
 AtZNuc=   6.0000000   1.0000000   1.0000000   1.0000000   6.0000000   1.0000000   1.0000000   6.0000000   1.0000000   1.0000000

  Atom        71          72          73          74          75          76          77
 IAtWgt=           1          12           1           1          12           1           1
 AtmWgt=   1.0078250  12.0000000   1.0078250   1.0078250  12.0000000   1.0078250   1.0078250
 NucSpn=           1           0           1           1           0           1           1
 AtZEff=  -0.0000000  -0.0000000  -0.0000000  -0.0000000  -0.0000000  -0.0000000  -0.0000000
 NQMom=    0.0000000   0.0000000   0.0000000   0.0000000   0.0000000   0.0000000   0.0000000
 NMagM=    2.7928460   0.0000000   2.7928460   2.7928460   0.0000000   2.7928460   2.7928460
 AtZNuc=   1.0000000   6.0000000   1.0000000   1.0000000   6.0000000   1.0000000   1.0000000
 Leave Link  101 at Thu Feb  7 23:27:57 2019, MaxMem=   104857600 cpu:               5.7 elap:               0.3
 (Enter /home/xinyan/g16/l103.exe)

 GradGradGradGradGradGradGradGradGradGradGradGradGradGradGradGradGradGrad
 Berny optimization.
 Initialization pass.
 Trust Radius=3.00D-01 FncErr=1.00D-07 GrdErr=1.00D-07 EigMax=2.50D+02 EigMin=1.00D-04
 Number of steps in this run=      2 maximum allowed number of steps=      2.
 GradGradGradGradGradGradGradGradGradGradGradGradGradGradGradGradGradGrad

 Leave Link  103 at Thu Feb  7 23:27:57 2019, MaxMem=   104857600 cpu:               1.6 elap:               0.1
 (Enter /home/xinyan/g16/l202.exe)
 Stoichiometry    C27H41N3O5S
 Framework group  C1[X(C27H41N3O5S)]
 Deg. of freedom   225
 Full point group                 C1      NOp   1
 Largest Abelian subgroup         C1      NOp   1
 Largest concise Abelian subgroup C1      NOp   1
                         Standard orientation:                         
 ---------------------------------------------------------------------
 Center     Atomic      Atomic             Coordinates (Angstroms)
 Number     Number       Type             X           Y           Z
 ---------------------------------------------------------------------
      1          6           0       -4.870167    0.140971   -0.440681
      2          6           0       -4.939458   -1.151002   -1.260428
      3          6           0       -3.566185   -1.500072   -1.846970
      4          6           0       -2.560112   -1.628557   -0.707615
      5          6           0       -2.438502   -0.299331    0.091618
      6          6           0       -3.818833    0.047758    0.669458
      7          1           0       -3.607896   -2.428314   -2.428385
      8          1           0       -5.278765   -1.975635   -0.619931
      9          1           0       -5.669641   -1.054268   -2.070737
     10          1           0       -4.605063    0.972530   -1.108875
     11          1           0       -5.854251    0.370424   -0.018268
     12          1           0       -2.883411   -2.418654   -0.024169
     13          1           0       -2.212874    0.471446   -0.660699
     14          1           0       -4.105030   -0.712591    1.407245
     15          1           0       -3.730438    1.007608    1.192318
     16          1           0       -3.271078   -0.689399   -2.527330
     17          7           0       -1.200632   -2.017397   -1.150320
     18          6           0       -0.580829   -1.348213   -2.149686
     19          6           0       -0.452383   -2.765278   -0.305275
     20          6           0        0.773028   -1.386571   -2.322304
     21          1           0       -1.218135   -0.756098   -2.793736
     22          6           0        0.906611   -2.848137   -0.410849
     23          1           0       -0.992789   -3.251313    0.499957
     24          6           0        1.587577   -2.075631   -1.381372
     25          1           0        1.209995   -0.833654   -3.143382
     26          1           0        1.436824   -3.416784    0.340135
     27          7           0        2.924671   -1.985251   -1.393827
     28          6           0        3.712786   -2.466257   -0.251929
     29          1           0        3.654665   -3.555735   -0.172373
     30          1           0        3.316829   -2.018649    0.670433
     31          6           0        3.626047   -0.917752   -2.123222
     32          1           0        3.887934   -1.258738   -3.132258
     33          1           0        2.986717   -0.033312   -2.187798
     34          7           0       -1.310294   -0.270864    0.997882
     35         16           0       -1.276461   -1.191337    2.280944
     36          8           0       -2.289040   -2.270678    2.277384
     37          8           0        0.117588   -1.659135    2.512851
     38          6           0       -1.028698    2.857874   -0.160047
     39          6           0       -0.349558    2.169866   -1.172331
     40          6           0       -0.918683    2.060157   -2.439102
     41          6           0       -2.181308    2.593694   -2.701109
     42          6           0       -2.872959    3.248788   -1.685031
     43          6           0       -2.293140    3.381242   -0.425297
     44          1           0        0.600693    1.687944   -0.948443
     45          1           0       -0.374245    1.549248   -3.230175
     46          1           0       -2.624264    2.499955   -3.688207
     47          1           0       -3.862743    3.656108   -1.869091
     48          1           0       -2.832228    3.889125    0.371265
     49          8           0        0.251893    1.863555    1.646356
     50          1           0       -0.289380    1.073450    1.346641
     51          6           0        2.441349    0.634375    1.195146
     52          8           0        2.102773    0.202672    0.106996
     53          8           0        2.240783   -0.008417    2.334809
     54          1           0        1.526481   -0.695494    2.230188
     55          6           0        3.191296    1.932791    1.381017
     56          1           0        2.690879    2.472219    2.190864
     57          1           0        4.203716    1.695682    1.736826
     58          6           0       -0.412149    3.014532    1.213984
     59          1           0       -1.196584    3.327005    1.922901
     60          1           0        0.331785    3.825065    1.190850
     61          6           0       -1.618912   -0.132601    3.683846
     62          1           0       -0.895069    0.685182    3.646596
     63          1           0       -2.636885    0.249048    3.583944
     64          1           0       -1.509129   -0.712082    4.601440
     65          6           0        3.239218    2.769088    0.108299
     66          1           0        3.663484    2.171939   -0.707908
     67          1           0        2.213112    3.005532   -0.195227
     68          6           0        4.040399    4.054893    0.287903
     69          1           0        4.078566    4.632444   -0.640271
     70          1           0        3.594606    4.690333    1.060333
     71          1           0        5.070502    3.838291    0.591257
     72          6           0        5.123200   -1.967895   -0.554574
     73          1           0        5.718071   -1.856679    0.354220
     74          1           0        5.637034   -2.669092   -1.219947
     75          6           0        4.865809   -0.638763   -1.268576
     76          1           0        4.617125    0.131870   -0.533624
     77          1           0        5.713418   -0.293758   -1.864239
 ---------------------------------------------------------------------
 Rotational constants (GHZ):           0.1447868           0.0969980           0.0865702
 Leave Link  202 at Thu Feb  7 23:27:57 2019, MaxMem=   104857600 cpu:               2.5 elap:               0.1
 (Enter /home/xinyan/g16/l301.exe)
 Standard basis: 6-31G(d) (6D, 7F)
 Ernie: Thresh=  0.10000D-02 Tol=  0.10000D-05 Strict=F.
 There are   626 symmetry adapted cartesian basis functions of A   symmetry.
 There are   626 symmetry adapted basis functions of A   symmetry.
   626 basis functions,  1196 primitive gaussians,   626 cartesian basis functions
   140 alpha electrons      140 beta electrons
       nuclear repulsion energy      4895.6363473407 Hartrees.
 IExCor= 4336 DFT=T Ex+Corr=M062X ExCW=0 ScaHFX=  0.540000
 ScaDFX=  1.000000  1.000000  1.000000  1.000000 ScalE2=  1.000000  1.000000
 IRadAn=      5 IRanWt=     -1 IRanGd=            0 ICorTp=0 IEmpDi=131
 NAtoms=   77 NActive=   77 NUniq=   77 SFac= 1.00D+00 NAtFMM=   60 NAOKFM=T Big=T
 Integral buffers will be    131072 words long.
 Raffenetti 2 integral format.
 Two-electron integral symmetry is turned on.
 R6Disp:  Grimme-D3 Dispersion energy=       -0.0106463630 Hartrees.
 Nuclear repulsion after empirical dispersion term =     4895.6257009777 Hartrees.
 Leave Link  301 at Thu Feb  7 23:27:58 2019, MaxMem=   104857600 cpu:               3.0 elap:               0.2
 (Enter /home/xinyan/g16/l302.exe)
 NPDir=0 NMtPBC=     1 NCelOv=     1 NCel=       1 NClECP=     1 NCelD=      1
         NCelK=      1 NCelE2=     1 NClLst=     1 CellRange=     0.0.
 One-electron integrals computed using PRISM.
 One-electron integral symmetry used in STVInt
 PrsmSu:  requested number of processors reduced to:  23 ShMem   1 Linda.
 NBasis=   626 RedAO= T EigKep=  4.35D-04  NBF=   626
 NBsUse=   626 1.00D-06 EigRej= -1.00D+00 NBFU=   626
 Precomputing XC quadrature grid using
 IXCGrd= 4 IRadAn=           5 IRanWt=          -1 IRanGd=           0 AccXCQ= 0.00D+00.
 Generated NRdTot=       0 NPtTot=           0 NUsed=           0 NTot=          32
 NSgBfM=   614   614   614   614   614 MxSgAt=    77 MxSgA2=    77.
 Leave Link  302 at Thu Feb  7 23:28:02 2019, MaxMem=   104857600 cpu:              90.9 elap:               4.0
 (Enter /home/xinyan/g16/l303.exe)
 DipDrv:  MaxL=1.
 Leave Link  303 at Thu Feb  7 23:28:02 2019, MaxMem=   104857600 cpu:               6.0 elap:               0.3
 (Enter /home/xinyan/g16/l401.exe)
 ExpMin= 1.17D-01 ExpMax= 2.19D+04 ExpMxC= 3.30D+03 IAcc=3 IRadAn=         5 AccDes= 0.00D+00
 Harris functional with IExCor= 1009 and IRadAn=       5 diagonalized for initial guess.
 HarFok:  IExCor= 1009 AccDes= 0.00D+00 IRadAn=         5 IDoV= 1 UseB2=F ITyADJ=14
 ICtDFT=  3500011 ScaDFX=  1.000000  1.000000  1.000000  1.000000
 FoFCou: FMM=F IPFlag=           0 FMFlag=      100000 FMFlg1=        2001
         NFxFlg=           0 DoJE=T BraDBF=F KetDBF=T FulRan=T
         wScrn=  0.000000 ICntrl=       500 IOpCl=  0 I1Cent=   200000004 NGrid=           0
         NMat0=    1 NMatS0=      1 NMatT0=    0 NMatD0=    1 NMtDS0=    0 NMtDT0=    0
 Petite list used in FoFCou.
 Harris En= -1990.54947312851    
 JPrj=0 DoOrth=F DoCkMO=F.
 Leave Link  401 at Thu Feb  7 23:28:06 2019, MaxMem=   104857600 cpu:              97.3 elap:               4.1
 (Enter /home/xinyan/g16/l502.exe)
 Integral symmetry usage will be decided dynamically.
 Closed shell SCF:
 Using DIIS extrapolation, IDIIS=  1040.
 NGot=   104857600 LenX=   104051656 LenY=   103659154
 Requested convergence on RMS density matrix=1.00D-08 within 128 cycles.
 Requested convergence on MAX density matrix=1.00D-06.
 Requested convergence on             energy=1.00D-06.
 No special actions if energy rises.
 Fock matrices will be formed incrementally for  20 cycles.
 Integral accuracy reduced to 1.0D-05 until final iterations.

 Cycle   1  Pass 0  IDiag  1:
 FoFJK:  IHMeth= 1 ICntrl=       0 DoSepK=F KAlg= 0 I1Cent=           0 FoldK=F
 IRaf= 990000000 NMat=       1 IRICut=       1 DoRegI=T DoRafI=F ISym2E= 0 IDoP0=0 IntGTp=1.
 FoFCou: FMM=T IPFlag=           0 FMFlag=      100000 FMFlg1=        2001
         NFxFlg=           0 DoJE=F BraDBF=F KetDBF=F FulRan=T
         wScrn=  0.000000 ICntrl=         0 IOpCl=  0 I1Cent=           0 NGrid=           0
         NMat0=    1 NMatS0=      1 NMatT0=    0 NMatD0=    1 NMtDS0=    0 NMtDT0=    0
 Symmetry not used in FoFCou.
 FMM levels:  10  Number of levels for PrismC:   9
 E= -1990.34881725957    
 DIIS: error= 2.87D-02 at cycle   1 NSaved=   1.
 NSaved= 1 IEnMin= 1 EnMin= -1990.34881725957     IErMin= 1 ErrMin= 2.87D-02
 ErrMax= 2.87D-02  0.00D+00 EMaxC= 1.00D-01 BMatC= 1.22D+00 BMatP= 1.22D+00
 IDIUse=3 WtCom= 7.13D-01 WtEn= 2.87D-01
 Coeff-Com:  0.100D+01
 Coeff-En:   0.100D+01
 Coeff:      0.100D+01
 Gap=     0.373 Goal=   None    Shift=    0.000
 GapD=    0.373 DampG=1.000 DampE=0.500 DampFc=0.5000 IDamp=-1.
 Damping current iteration by 5.00D-01
 RMSDP=3.21D-03 MaxDP=3.20D-01              OVMax= 1.39D-01

 Cycle   2  Pass 0  IDiag  1:
 RMSU=  1.59D-03    CP:  9.87D-01
 E= -1990.86202012678     Delta-E=       -0.513202867211 Rises=F Damp=T
 DIIS: error= 8.96D-03 at cycle   2 NSaved=   2.
 NSaved= 2 IEnMin= 2 EnMin= -1990.86202012678     IErMin= 2 ErrMin= 8.96D-03
 ErrMax= 8.96D-03  0.00D+00 EMaxC= 1.00D-01 BMatC= 8.81D-02 BMatP= 1.22D+00
 IDIUse=3 WtCom= 9.10D-01 WtEn= 8.96D-02
 Coeff-Com: -0.442D-01 0.104D+01
 Coeff-En:   0.000D+00 0.100D+01
 Coeff:     -0.402D-01 0.104D+01
 Gap=     0.253 Goal=   None    Shift=    0.000
 RMSDP=7.76D-04 MaxDP=7.51D-02 DE=-5.13D-01 OVMax= 9.36D-02

 Cycle   3  Pass 0  IDiag  1:
 RMSU=  7.70D-04    CP:  9.81D-01  1.01D+00
 E= -1991.35722411046     Delta-E=       -0.495203983679 Rises=F Damp=F
 DIIS: error= 7.21D-03 at cycle   3 NSaved=   3.
 NSaved= 3 IEnMin= 3 EnMin= -1991.35722411046     IErMin= 3 ErrMin= 7.21D-03
 ErrMax= 7.21D-03  0.00D+00 EMaxC= 1.00D-01 BMatC= 3.71D-02 BMatP= 8.81D-02
 IDIUse=3 WtCom= 9.28D-01 WtEn= 7.21D-02
 Coeff-Com: -0.713D-01 0.407D+00 0.664D+00
 Coeff-En:   0.000D+00 0.000D+00 0.100D+01
 Coeff:     -0.662D-01 0.378D+00 0.688D+00
 Gap=     0.252 Goal=   None    Shift=    0.000
 RMSDP=4.24D-04 MaxDP=4.05D-02 DE=-4.95D-01 OVMax= 4.07D-02

 Cycle   4  Pass 0  IDiag  1:
 RMSU=  2.88D-04    CP:  9.83D-01  1.09D+00  6.34D-01
 E= -1991.37848656984     Delta-E=       -0.021262459374 Rises=F Damp=F
 DIIS: error= 3.88D-03 at cycle   4 NSaved=   4.
 NSaved= 4 IEnMin= 4 EnMin= -1991.37848656984     IErMin= 4 ErrMin= 3.88D-03
 ErrMax= 3.88D-03  0.00D+00 EMaxC= 1.00D-01 BMatC= 1.08D-02 BMatP= 3.71D-02
 IDIUse=3 WtCom= 9.61D-01 WtEn= 3.88D-02
 Coeff-Com: -0.261D-01 0.862D-01 0.378D+00 0.562D+00
 Coeff-En:   0.000D+00 0.000D+00 0.232D+00 0.768D+00
 Coeff:     -0.251D-01 0.829D-01 0.372D+00 0.570D+00
 Gap=     0.242 Goal=   None    Shift=    0.000
 RMSDP=1.80D-04 MaxDP=1.24D-02 DE=-2.13D-02 OVMax= 2.09D-02

 Cycle   5  Pass 0  IDiag  1:
 RMSU=  8.31D-05    CP:  9.82D-01  1.08D+00  7.49D-01  5.42D-01
 E= -1991.38711727894     Delta-E=       -0.008630709104 Rises=F Damp=F
 DIIS: error= 7.00D-04 at cycle   5 NSaved=   5.
 NSaved= 5 IEnMin= 5 EnMin= -1991.38711727894     IErMin= 5 ErrMin= 7.00D-04
 ErrMax= 7.00D-04  0.00D+00 EMaxC= 1.00D-01 BMatC= 5.79D-04 BMatP= 1.08D-02
 IDIUse=3 WtCom= 9.93D-01 WtEn= 7.00D-03
 Coeff-Com: -0.810D-02 0.194D-01 0.146D+00 0.287D+00 0.556D+00
 Coeff-En:   0.000D+00 0.000D+00 0.000D+00 0.000D+00 0.100D+01
 Coeff:     -0.804D-02 0.192D-01 0.145D+00 0.285D+00 0.559D+00
 Gap=     0.244 Goal=   None    Shift=    0.000
 RMSDP=4.80D-05 MaxDP=3.71D-03 DE=-8.63D-03 OVMax= 5.93D-03

 Cycle   6  Pass 0  IDiag  1:
 RMSU=  2.40D-05    CP:  9.82D-01  1.08D+00  7.52D-01  6.15D-01  5.68D-01
 E= -1991.38761375626     Delta-E=       -0.000496477322 Rises=F Damp=F
 DIIS: error= 1.94D-04 at cycle   6 NSaved=   6.
 NSaved= 6 IEnMin= 6 EnMin= -1991.38761375626     IErMin= 6 ErrMin= 1.94D-04
 ErrMax= 1.94D-04  0.00D+00 EMaxC= 1.00D-01 BMatC= 3.78D-05 BMatP= 5.79D-04
 IDIUse=3 WtCom= 9.98D-01 WtEn= 1.94D-03
 Coeff-Com: -0.119D-02 0.104D-02 0.310D-01 0.769D-01 0.260D+00 0.632D+00
 Coeff-En:   0.000D+00 0.000D+00 0.000D+00 0.000D+00 0.000D+00 0.100D+01
 Coeff:     -0.118D-02 0.104D-02 0.309D-01 0.767D-01 0.260D+00 0.633D+00
 Gap=     0.243 Goal=   None    Shift=    0.000
 RMSDP=1.22D-05 MaxDP=6.75D-04 DE=-4.96D-04 OVMax= 1.93D-03

 Cycle   7  Pass 0  IDiag  1:
 RMSU=  7.89D-06    CP:  9.82D-01  1.08D+00  7.55D-01  6.15D-01  6.41D-01
                    CP:  7.16D-01
 E= -1991.38765123265     Delta-E=       -0.000037476385 Rises=F Damp=F
 DIIS: error= 3.98D-05 at cycle   7 NSaved=   7.
 NSaved= 7 IEnMin= 7 EnMin= -1991.38765123265     IErMin= 7 ErrMin= 3.98D-05
 ErrMax= 3.98D-05  0.00D+00 EMaxC= 1.00D-01 BMatC= 2.92D-06 BMatP= 3.78D-05
 IDIUse=1 WtCom= 1.00D+00 WtEn= 0.00D+00
 Coeff-Com:  0.293D-03-0.145D-02-0.681D-03 0.605D-02 0.625D-01 0.269D+00
 Coeff-Com:  0.665D+00
 Coeff:      0.293D-03-0.145D-02-0.681D-03 0.605D-02 0.625D-01 0.269D+00
 Coeff:      0.665D+00
 Gap=     0.243 Goal=   None    Shift=    0.000
 RMSDP=4.15D-06 MaxDP=2.33D-04 DE=-3.75D-05 OVMax= 3.55D-04

 Initial convergence to 1.0D-05 achieved.  Increase integral accuracy.
 Cycle   8  Pass 1  IDiag  1:
 E= -1991.38769745782     Delta-E=       -0.000046225168 Rises=F Damp=F
 DIIS: error= 1.41D-04 at cycle   1 NSaved=   1.
 NSaved= 1 IEnMin= 1 EnMin= -1991.38769745782     IErMin= 1 ErrMin= 1.41D-04
 ErrMax= 1.41D-04  0.00D+00 EMaxC= 1.00D-01 BMatC= 1.18D-05 BMatP= 1.18D-05
 IDIUse=3 WtCom= 9.99D-01 WtEn= 1.41D-03
 Coeff-Com:  0.100D+01
 Coeff-En:   0.100D+01
 Coeff:      0.100D+01
 Gap=     0.244 Goal=   None    Shift=    0.000
 RMSDP=4.15D-06 MaxDP=2.33D-04 DE=-4.62D-05 OVMax= 5.68D-04

 Cycle   9  Pass 1  IDiag  1:
 RMSU=  6.41D-05    CP:  1.00D+00
 E= -1991.38770823822     Delta-E=       -0.000010780400 Rises=F Damp=F
 DIIS: error= 2.32D-05 at cycle   2 NSaved=   2.
 NSaved= 2 IEnMin= 2 EnMin= -1991.38770823822     IErMin= 2 ErrMin= 2.32D-05
 ErrMax= 2.32D-05  0.00D+00 EMaxC= 1.00D-01 BMatC= 9.17D-07 BMatP= 1.18D-05
 IDIUse=1 WtCom= 1.00D+00 WtEn= 0.00D+00
 Coeff-Com:  0.871D-01 0.913D+00
 Coeff:      0.871D-01 0.913D+00
 Gap=     0.243 Goal=   None    Shift=    0.000
 RMSDP=3.97D-06 MaxDP=2.56D-04 DE=-1.08D-05 OVMax= 4.49D-04

 Cycle  10  Pass 1  IDiag  1:
 RMSU=  3.55D-06    CP:  1.00D+00  1.03D+00
 E= -1991.38770776394     Delta-E=        0.000000474277 Rises=F Damp=F
 DIIS: error= 3.47D-05 at cycle   3 NSaved=   3.
 NSaved= 3 IEnMin= 2 EnMin= -1991.38770823822     IErMin= 2 ErrMin= 2.32D-05
 ErrMax= 3.47D-05  0.00D+00 EMaxC= 1.00D-01 BMatC= 1.46D-06 BMatP= 9.17D-07
 IDIUse=1 WtCom= 1.00D+00 WtEn= 0.00D+00
 Coeff-Com: -0.161D-01 0.565D+00 0.451D+00
 Coeff:     -0.161D-01 0.565D+00 0.451D+00
 Gap=     0.243 Goal=   None    Shift=    0.000
 RMSDP=1.98D-06 MaxDP=1.58D-04 DE= 4.74D-07 OVMax= 3.24D-04

 Cycle  11  Pass 1  IDiag  1:
 RMSU=  6.22D-07    CP:  1.00D+00  1.03D+00  4.79D-01
 E= -1991.38770903760     Delta-E=       -0.000001273656 Rises=F Damp=F
 DIIS: error= 3.46D-06 at cycle   4 NSaved=   4.
 NSaved= 4 IEnMin= 4 EnMin= -1991.38770903760     IErMin= 4 ErrMin= 3.46D-06
 ErrMax= 3.46D-06  0.00D+00 EMaxC= 1.00D-01 BMatC= 1.11D-08 BMatP= 9.17D-07
 IDIUse=1 WtCom= 1.00D+00 WtEn= 0.00D+00
 Coeff-Com: -0.879D-02 0.249D+00 0.215D+00 0.545D+00
 Coeff:     -0.879D-02 0.249D+00 0.215D+00 0.545D+00
 Gap=     0.243 Goal=   None    Shift=    0.000
 RMSDP=2.17D-07 MaxDP=1.13D-05 DE=-1.27D-06 OVMax= 2.00D-05

 Cycle  12  Pass 1  IDiag  1:
 RMSU=  1.97D-07    CP:  1.00D+00  1.03D+00  4.96D-01  8.95D-01
 E= -1991.38770904768     Delta-E=       -0.000000010078 Rises=F Damp=F
 DIIS: error= 1.10D-06 at cycle   5 NSaved=   5.
 NSaved= 5 IEnMin= 5 EnMin= -1991.38770904768     IErMin= 5 ErrMin= 1.10D-06
 ErrMax= 1.10D-06  0.00D+00 EMaxC= 1.00D-01 BMatC= 9.33D-10 BMatP= 1.11D-08
 IDIUse=1 WtCom= 1.00D+00 WtEn= 0.00D+00
 Coeff-Com: -0.386D-03-0.862D-02 0.459D-02 0.188D+00 0.817D+00
 Coeff:     -0.386D-03-0.862D-02 0.459D-02 0.188D+00 0.817D+00
 Gap=     0.243 Goal=   None    Shift=    0.000
 RMSDP=9.36D-08 MaxDP=3.96D-06 DE=-1.01D-08 OVMax= 1.60D-05

 Cycle  13  Pass 1  IDiag  1:
 RMSU=  7.13D-08    CP:  1.00D+00  1.03D+00  5.01D-01  9.83D-01  9.10D-01
 E= -1991.38770904858     Delta-E=       -0.000000000905 Rises=F Damp=F
 DIIS: error= 5.44D-07 at cycle   6 NSaved=   6.
 NSaved= 6 IEnMin= 6 EnMin= -1991.38770904858     IErMin= 6 ErrMin= 5.44D-07
 ErrMax= 5.44D-07  0.00D+00 EMaxC= 1.00D-01 BMatC= 3.24D-10 BMatP= 9.33D-10
 IDIUse=1 WtCom= 1.00D+00 WtEn= 0.00D+00
 Coeff-Com:  0.107D-02-0.407D-01-0.269D-01 0.192D-01 0.455D+00 0.592D+00
 Coeff:      0.107D-02-0.407D-01-0.269D-01 0.192D-01 0.455D+00 0.592D+00
 Gap=     0.243 Goal=   None    Shift=    0.000
 RMSDP=3.74D-08 MaxDP=3.18D-06 DE=-9.05D-10 OVMax= 5.04D-06

 Cycle  14  Pass 1  IDiag  1:
 RMSU=  2.65D-08    CP:  1.00D+00  1.03D+00  5.04D-01  9.98D-01  1.00D+00
                    CP:  8.17D-01
 E= -1991.38770904894     Delta-E=       -0.000000000362 Rises=F Damp=F
 DIIS: error= 2.05D-07 at cycle   7 NSaved=   7.
 NSaved= 7 IEnMin= 7 EnMin= -1991.38770904894     IErMin= 7 ErrMin= 2.05D-07
 ErrMax= 2.05D-07  0.00D+00 EMaxC= 1.00D-01 BMatC= 2.14D-11 BMatP= 3.24D-10
 IDIUse=1 WtCom= 1.00D+00 WtEn= 0.00D+00
 Coeff-Com:  0.484D-03-0.162D-01-0.109D-01-0.145D-01 0.105D+00 0.238D+00
 Coeff-Com:  0.698D+00
 Coeff:      0.484D-03-0.162D-01-0.109D-01-0.145D-01 0.105D+00 0.238D+00
 Coeff:      0.698D+00
 Gap=     0.243 Goal=   None    Shift=    0.000
 RMSDP=1.20D-08 MaxDP=8.27D-07 DE=-3.62D-10 OVMax= 1.76D-06

 Cycle  15  Pass 1  IDiag  1:
 RMSU=  8.91D-09    CP:  1.00D+00  1.03D+00  5.04D-01  1.00D+00  1.02D+00
                    CP:  9.01D-01  1.07D+00
 E= -1991.38770904890     Delta-E=        0.000000000044 Rises=F Damp=F
 DIIS: error= 5.74D-08 at cycle   8 NSaved=   8.
 NSaved= 8 IEnMin= 7 EnMin= -1991.38770904894     IErMin= 8 ErrMin= 5.74D-08
 ErrMax= 5.74D-08  0.00D+00 EMaxC= 1.00D-01 BMatC= 3.26D-12 BMatP= 2.14D-11
 IDIUse=1 WtCom= 1.00D+00 WtEn= 0.00D+00
 Coeff-Com: -0.408D-04 0.239D-02 0.195D-02-0.110D-01-0.533D-01-0.283D-01
 Coeff-Com:  0.279D+00 0.810D+00
 Coeff:     -0.408D-04 0.239D-02 0.195D-02-0.110D-01-0.533D-01-0.283D-01
 Coeff:      0.279D+00 0.810D+00
 Gap=     0.243 Goal=   None    Shift=    0.000
 RMSDP=5.34D-09 MaxDP=3.98D-07 DE= 4.37D-11 OVMax= 7.91D-07

 SCF Done:  E(RM062X) =  -1991.38770905     A.U. after   15 cycles
            NFock= 15  Conv=0.53D-08     -V/T= 2.0075
 KE= 1.976478662476D+03 PE=-1.444380561293D+04 EE= 5.580313540426D+03
 Leave Link  502 at Thu Feb  7 23:30:41 2019, MaxMem=   104857600 cpu:            3716.5 elap:             155.2
 (Enter /home/xinyan/g16/l601.exe)
 Copying SCF densities to generalized density rwf, IOpCl= 0 IROHF=0.

 **********************************************************************

            Population analysis using the SCF density.

 **********************************************************************

 Orbital symmetries:
       Occupied  (A) (A) (A) (A) (A) (A) (A) (A) (A) (A) (A) (A)
                 (A) (A) (A) (A) (A) (A) (A) (A) (A) (A) (A) (A)
                 (A) (A) (A) (A) (A) (A) (A) (A) (A) (A) (A) (A)
                 (A) (A) (A) (A) (A) (A) (A) (A) (A) (A) (A) (A)
                 (A) (A) (A) (A) (A) (A) (A) (A) (A) (A) (A) (A)
                 (A) (A) (A) (A) (A) (A) (A) (A) (A) (A) (A) (A)
                 (A) (A) (A) (A) (A) (A) (A) (A) (A) (A) (A) (A)
                 (A) (A) (A) (A) (A) (A) (A) (A) (A) (A) (A) (A)
                 (A) (A) (A) (A) (A) (A) (A) (A) (A) (A) (A) (A)
                 (A) (A) (A) (A) (A) (A) (A) (A) (A) (A) (A) (A)
                 (A) (A) (A) (A) (A) (A) (A) (A) (A) (A) (A) (A)
                 (A) (A) (A) (A) (A) (A) (A) (A)
       Virtual   (A) (A) (A) (A) (A) (A) (A) (A) (A) (A) (A) (A)
                 (A) (A) (A) (A) (A) (A) (A) (A) (A) (A) (A) (A)
                 (A) (A) (A) (A) (A) (A) (A) (A) (A) (A) (A) (A)
                 (A) (A) (A) (A) (A) (A) (A) (A) (A) (A) (A) (A)
                 (A) (A) (A) (A) (A) (A) (A) (A) (A) (A) (A) (A)
                 (A) (A) (A) (A) (A) (A) (A) (A) (A) (A) (A) (A)
                 (A) (A) (A) (A) (A) (A) (A) (A) (A) (A) (A) (A)
                 (A) (A) (A) (A) (A) (A) (A) (A) (A) (A) (A) (A)
                 (A) (A) (A) (A) (A) (A) (A) (A) (A) (A) (A) (A)
                 (A) (A) (A) (A) (A) (A) (A) (A) (A) (A) (A) (A)
                 (A) (A) (A) (A) (A) (A) (A) (A) (A) (A) (A) (A)
                 (A) (A) (A) (A) (A) (A) (A) (A) (A) (A) (A) (A)
                 (A) (A) (A) (A) (A) (A) (A) (A) (A) (A) (A) (A)
                 (A) (A) (A) (A) (A) (A) (A) (A) (A) (A) (A) (A)
                 (A) (A) (A) (A) (A) (A) (A) (A) (A) (A) (A) (A)
                 (A) (A) (A) (A) (A) (A) (A) (A) (A) (A) (A) (A)
                 (A) (A) (A) (A) (A) (A) (A) (A) (A) (A) (A) (A)
                 (A) (A) (A) (A) (A) (A) (A) (A) (A) (A) (A) (A)
                 (A) (A) (A) (A) (A) (A) (A) (A) (A) (A) (A) (A)
                 (A) (A) (A) (A) (A) (A) (A) (A) (A) (A) (A) (A)
                 (A) (A) (A) (A) (A) (A) (A) (A) (A) (A) (A) (A)
                 (A) (A) (A) (A) (A) (A) (A) (A) (A) (A) (A) (A)
                 (A) (A) (A) (A) (A) (A) (A) (A) (A) (A) (A) (A)
                 (A) (A) (A) (A) (A) (A) (A) (A) (A) (A) (A) (A)
                 (A) (A) (A) (A) (A) (A) (A) (A) (A) (A) (A) (A)
                 (A) (A) (A) (A) (A) (A) (A) (A) (A) (A) (A) (A)
                 (A) (A) (A) (A) (A) (A) (A) (A) (A) (A) (A) (A)
                 (A) (A) (A) (A) (A) (A) (A) (A) (A) (A) (A) (A)
                 (A) (A) (A) (A) (A) (A) (A) (A) (A) (A) (A) (A)
                 (A) (A) (A) (A) (A) (A) (A) (A) (A) (A) (A) (A)
                 (A) (A) (A) (A) (A) (A) (A) (A) (A) (A) (A) (A)
                 (A) (A) (A) (A) (A) (A) (A) (A) (A) (A) (A) (A)
                 (A) (A) (A) (A) (A) (A) (A) (A) (A) (A) (A) (A)
                 (A) (A) (A) (A) (A) (A) (A) (A) (A) (A) (A) (A)
                 (A) (A) (A) (A) (A) (A) (A) (A) (A) (A) (A) (A)
                 (A) (A) (A) (A) (A) (A) (A) (A) (A) (A) (A) (A)
                 (A) (A) (A) (A) (A) (A) (A) (A) (A) (A) (A) (A)
                 (A) (A) (A) (A) (A) (A) (A) (A) (A) (A) (A) (A)
                 (A) (A) (A) (A) (A) (A) (A) (A) (A) (A) (A) (A)
                 (A) (A) (A) (A) (A) (A) (A) (A) (A) (A) (A) (A)
                 (A) (A) (A) (A) (A) (A)
 The electronic state is 1-A.
 Alpha  occ. eigenvalues --  -90.10317 -19.63408 -19.60108 -19.59121 -19.58509
 Alpha  occ. eigenvalues --  -19.58320 -14.84789 -14.80475 -14.69341 -10.65530
 Alpha  occ. eigenvalues --  -10.63215 -10.62408 -10.61504 -10.59121 -10.59092
 Alpha  occ. eigenvalues --  -10.59011 -10.57822 -10.57412 -10.56790 -10.56667
 Alpha  occ. eigenvalues --  -10.56004 -10.55732 -10.55550 -10.54994 -10.54932
 Alpha  occ. eigenvalues --  -10.54882 -10.54608 -10.54569 -10.54505 -10.53829
 Alpha  occ. eigenvalues --  -10.53602 -10.53571 -10.53250 -10.53203 -10.52694
 Alpha  occ. eigenvalues --  -10.52619  -8.41279  -6.33517  -6.33425  -6.33344
 Alpha  occ. eigenvalues --   -1.19155  -1.17830  -1.12927  -1.10240  -1.09881
 Alpha  occ. eigenvalues --   -1.09118  -1.06097  -0.97527  -0.95287  -0.94773
 Alpha  occ. eigenvalues --   -0.92184  -0.89838  -0.88568  -0.88162  -0.85037
 Alpha  occ. eigenvalues --   -0.84918  -0.83662  -0.83510  -0.83299  -0.80141
 Alpha  occ. eigenvalues --   -0.79228  -0.76334  -0.75639  -0.74682  -0.70935
 Alpha  occ. eigenvalues --   -0.70208  -0.69166  -0.68697  -0.68348  -0.68038
 Alpha  occ. eigenvalues --   -0.65873  -0.64733  -0.63928  -0.63441  -0.61602
 Alpha  occ. eigenvalues --   -0.60258  -0.59377  -0.59025  -0.58349  -0.56159
 Alpha  occ. eigenvalues --   -0.55474  -0.55191  -0.55089  -0.54172  -0.53737
 Alpha  occ. eigenvalues --   -0.53444  -0.53062  -0.52487  -0.51937  -0.51694
 Alpha  occ. eigenvalues --   -0.51109  -0.50975  -0.50611  -0.50098  -0.49832
 Alpha  occ. eigenvalues --   -0.49589  -0.49533  -0.48804  -0.48333  -0.47991
 Alpha  occ. eigenvalues --   -0.47810  -0.47183  -0.47019  -0.46978  -0.45900
 Alpha  occ. eigenvalues --   -0.45725  -0.45227  -0.43944  -0.43656  -0.43434
 Alpha  occ. eigenvalues --   -0.42794  -0.42602  -0.42206  -0.42000  -0.41880
 Alpha  occ. eigenvalues --   -0.41163  -0.40885  -0.40543  -0.39896  -0.39558
 Alpha  occ. eigenvalues --   -0.39360  -0.39246  -0.38871  -0.38391  -0.37948
 Alpha  occ. eigenvalues --   -0.37312  -0.36214  -0.35826  -0.35340  -0.35134
 Alpha  occ. eigenvalues --   -0.34347  -0.33069  -0.32037  -0.31670  -0.31492
 Alpha  occ. eigenvalues --   -0.29884  -0.28870  -0.28317  -0.27406  -0.25371
 Alpha virt. eigenvalues --   -0.01030   0.00664   0.03227   0.03766   0.09007
 Alpha virt. eigenvalues --    0.10168   0.10906   0.11815   0.12963   0.13542
 Alpha virt. eigenvalues --    0.13867   0.14283   0.15016   0.15481   0.15808
 Alpha virt. eigenvalues --    0.16202   0.16461   0.17241   0.17513   0.17979
 Alpha virt. eigenvalues --    0.18316   0.18376   0.18583   0.18916   0.19147
 Alpha virt. eigenvalues --    0.19436   0.19622   0.20056   0.20358   0.20447
 Alpha virt. eigenvalues --    0.20859   0.20981   0.21238   0.21637   0.21903
 Alpha virt. eigenvalues --    0.22242   0.22590   0.22800   0.22837   0.23216
 Alpha virt. eigenvalues --    0.23728   0.23920   0.24330   0.24402   0.24586
 Alpha virt. eigenvalues --    0.24903   0.25284   0.25339   0.25900   0.26418
 Alpha virt. eigenvalues --    0.27050   0.27424   0.27620   0.28143   0.28295
 Alpha virt. eigenvalues --    0.28670   0.29414   0.29561   0.30396   0.30563
 Alpha virt. eigenvalues --    0.30799   0.31129   0.31655   0.32115   0.32577
 Alpha virt. eigenvalues --    0.32922   0.33543   0.34632   0.35261   0.35460
 Alpha virt. eigenvalues --    0.35851   0.36637   0.37232   0.38271   0.38510
 Alpha virt. eigenvalues --    0.39535   0.39819   0.41264   0.41763   0.42941
 Alpha virt. eigenvalues --    0.44942   0.47219   0.47686   0.48616   0.50145
 Alpha virt. eigenvalues --    0.51145   0.52437   0.53499   0.53753   0.55302
 Alpha virt. eigenvalues --    0.55603   0.56192   0.56914   0.57070   0.57829
 Alpha virt. eigenvalues --    0.58003   0.58774   0.58872   0.59128   0.59323
 Alpha virt. eigenvalues --    0.59620   0.60381   0.60858   0.61028   0.61235
 Alpha virt. eigenvalues --    0.61474   0.61655   0.61848   0.62491   0.62728
 Alpha virt. eigenvalues --    0.63566   0.63847   0.64411   0.64748   0.65369
 Alpha virt. eigenvalues --    0.65949   0.66203   0.66905   0.67392   0.67582
 Alpha virt. eigenvalues --    0.67714   0.68438   0.68963   0.69415   0.70153
 Alpha virt. eigenvalues --    0.70699   0.71254   0.71733   0.71896   0.72783
 Alpha virt. eigenvalues --    0.73053   0.73706   0.73999   0.74608   0.75279
 Alpha virt. eigenvalues --    0.75546   0.75949   0.76283   0.76854   0.77467
 Alpha virt. eigenvalues --    0.78206   0.78714   0.79317   0.79985   0.80867
 Alpha virt. eigenvalues --    0.81323   0.81495   0.82601   0.83098   0.83682
 Alpha virt. eigenvalues --    0.84558   0.85198   0.85393   0.85505   0.86507
 Alpha virt. eigenvalues --    0.86944   0.87596   0.88115   0.88567   0.88728
 Alpha virt. eigenvalues --    0.89456   0.89710   0.90402   0.90590   0.90865
 Alpha virt. eigenvalues --    0.91262   0.91589   0.92260   0.92531   0.92831
 Alpha virt. eigenvalues --    0.93032   0.93463   0.93936   0.94138   0.94700
 Alpha virt. eigenvalues --    0.95281   0.95566   0.96321   0.96464   0.96628
 Alpha virt. eigenvalues --    0.96739   0.97073   0.97313   0.97784   0.98075
 Alpha virt. eigenvalues --    0.98546   0.99066   0.99183   0.99505   0.99645
 Alpha virt. eigenvalues --    1.00227   1.00316   1.01495   1.01749   1.02118
 Alpha virt. eigenvalues --    1.02444   1.03065   1.03615   1.04108   1.04872
 Alpha virt. eigenvalues --    1.05205   1.05687   1.05798   1.06375   1.06780
 Alpha virt. eigenvalues --    1.07759   1.08254   1.08838   1.10197   1.11187
 Alpha virt. eigenvalues --    1.11767   1.12496   1.12777   1.13556   1.14317
 Alpha virt. eigenvalues --    1.15060   1.15629   1.16640   1.17554   1.18620
 Alpha virt. eigenvalues --    1.18832   1.19350   1.19546   1.20967   1.21596
 Alpha virt. eigenvalues --    1.22404   1.23107   1.24212   1.24790   1.25434
 Alpha virt. eigenvalues --    1.26225   1.26869   1.27597   1.28071   1.29233
 Alpha virt. eigenvalues --    1.29838   1.30275   1.31301   1.32026   1.33117
 Alpha virt. eigenvalues --    1.33680   1.34674   1.35233   1.36328   1.36357
 Alpha virt. eigenvalues --    1.37669   1.39028   1.39568   1.40077   1.40767
 Alpha virt. eigenvalues --    1.41544   1.42336   1.43704   1.44074   1.44572
 Alpha virt. eigenvalues --    1.45319   1.46463   1.48004   1.48597   1.49333
 Alpha virt. eigenvalues --    1.49835   1.50190   1.51178   1.51664   1.52361
 Alpha virt. eigenvalues --    1.52507   1.53096   1.54086   1.55082   1.55371
 Alpha virt. eigenvalues --    1.55882   1.56553   1.57598   1.58461   1.58750
 Alpha virt. eigenvalues --    1.60204   1.61003   1.61860   1.62346   1.63745
 Alpha virt. eigenvalues --    1.67142   1.67675   1.68695   1.70296   1.71362
 Alpha virt. eigenvalues --    1.72671   1.73852   1.75624   1.75878   1.77033
 Alpha virt. eigenvalues --    1.78091   1.78523   1.79780   1.80007   1.81347
 Alpha virt. eigenvalues --    1.81753   1.83020   1.83205   1.84479   1.84683
 Alpha virt. eigenvalues --    1.86048   1.86606   1.86819   1.87378   1.88446
 Alpha virt. eigenvalues --    1.88723   1.89597   1.90377   1.91189   1.91466
 Alpha virt. eigenvalues --    1.92022   1.92264   1.92658   1.93411   1.93477
 Alpha virt. eigenvalues --    1.94081   1.94504   1.95068   1.95642   1.96348
 Alpha virt. eigenvalues --    1.97305   1.97706   1.98650   1.98881   1.99831
 Alpha virt. eigenvalues --    2.00322   2.01162   2.01553   2.02595   2.03301
 Alpha virt. eigenvalues --    2.03562   2.03849   2.04113   2.04655   2.05552
 Alpha virt. eigenvalues --    2.06105   2.06679   2.07005   2.07305   2.08309
 Alpha virt. eigenvalues --    2.08504   2.09357   2.09672   2.10457   2.11213
 Alpha virt. eigenvalues --    2.11781   2.12399   2.13056   2.13696   2.14209
 Alpha virt. eigenvalues --    2.15047   2.16008   2.16134   2.16931   2.17538
 Alpha virt. eigenvalues --    2.18674   2.19158   2.19853   2.20788   2.21109
 Alpha virt. eigenvalues --    2.21818   2.22381   2.22958   2.24109   2.24386
 Alpha virt. eigenvalues --    2.24914   2.25303   2.25879   2.27199   2.28495
 Alpha virt. eigenvalues --    2.29018   2.29488   2.30555   2.31040   2.31974
 Alpha virt. eigenvalues --    2.32291   2.32832   2.33141   2.34911   2.35283
 Alpha virt. eigenvalues --    2.35988   2.36582   2.36995   2.37974   2.38345
 Alpha virt. eigenvalues --    2.39467   2.39758   2.40057   2.41128   2.41947
 Alpha virt. eigenvalues --    2.42675   2.43537   2.44316   2.45088   2.46547
 Alpha virt. eigenvalues --    2.49092   2.50297   2.51610   2.51882   2.52111
 Alpha virt. eigenvalues --    2.53227   2.54111   2.55791   2.56293   2.56551
 Alpha virt. eigenvalues --    2.59554   2.60346   2.61473   2.62292   2.63442
 Alpha virt. eigenvalues --    2.63575   2.65427   2.66049   2.66780   2.68000
 Alpha virt. eigenvalues --    2.68455   2.68674   2.69825   2.71165   2.71371
 Alpha virt. eigenvalues --    2.72760   2.72962   2.74200   2.76489   2.76804
 Alpha virt. eigenvalues --    2.77574   2.78276   2.79630   2.79723   2.80390
 Alpha virt. eigenvalues --    2.83200   2.83982   2.86335   2.87340   2.88996
 Alpha virt. eigenvalues --    2.93047   2.93333   2.94099   2.95354   2.96407
 Alpha virt. eigenvalues --    2.99569   2.99934   3.01207   3.02557   3.10311
 Alpha virt. eigenvalues --    3.17693   3.20517   3.23658   3.42540   3.43130
 Alpha virt. eigenvalues --    3.96772   4.02673   4.07444   4.10953   4.12172
 Alpha virt. eigenvalues --    4.14289   4.15871   4.17217   4.18216   4.19882
 Alpha virt. eigenvalues --    4.22192   4.24432   4.24850   4.26391   4.26966
 Alpha virt. eigenvalues --    4.30904   4.31392   4.32956   4.34742   4.36202
 Alpha virt. eigenvalues --    4.37115   4.38240   4.40123   4.41285   4.44526
 Alpha virt. eigenvalues --    4.46941   4.49319   4.52404   4.58618   4.59160
 Alpha virt. eigenvalues --    4.62149   4.64315   4.65906   4.75143   4.75654
 Alpha virt. eigenvalues --    4.78309
          Condensed to atoms (all electrons):
 Mulliken charges:
               1
     1  C   -0.303914
     2  C   -0.304181
     3  C   -0.309607
     4  C   -0.073112
     5  C    0.063848
     6  C   -0.305003
     7  H    0.166343
     8  H    0.161008
     9  H    0.159135
    10  H    0.145829
    11  H    0.156774
    12  H    0.212101
    13  H    0.141238
    14  H    0.179365
    15  H    0.149990
    16  H    0.150164
    17  N   -0.424048
    18  C    0.099155
    19  C    0.084373
    20  C   -0.227388
    21  H    0.204754
    22  C   -0.226481
    23  H    0.263627
    24  C    0.427769
    25  H    0.187952
    26  H    0.207358
    27  N   -0.528202
    28  C   -0.158132
    29  H    0.178335
    30  H    0.198914
    31  C   -0.146570
    32  H    0.169585
    33  H    0.195028
    34  N   -0.757896
    35  S    1.249299
    36  O   -0.645356
    37  O   -0.670064
    38  C    0.048840
    39  C   -0.176581
    40  C   -0.187572
    41  C   -0.169688
    42  C   -0.161568
    43  C   -0.198680
    44  H    0.204534
    45  H    0.139158
    46  H    0.156536
    47  H    0.161984
    48  H    0.157509
    49  O   -0.714422
    50  H    0.483242
    51  C    0.652480
    52  O   -0.522004
    53  O   -0.646467
    54  H    0.485457
    55  C   -0.369768
    56  H    0.202002
    57  H    0.164758
    58  C   -0.064744
    59  H    0.127621
    60  H    0.152828
    61  C   -0.658779
    62  H    0.222410
    63  H    0.187295
    64  H    0.207226
    65  C   -0.288184
    66  H    0.144665
    67  H    0.163620
    68  C   -0.480332
    69  H    0.158898
    70  H    0.158413
    71  H    0.151071
    72  C   -0.337083
    73  H    0.184361
    74  H    0.169953
    75  C   -0.335862
    76  H    0.181795
    77  H    0.173091
 Sum of Mulliken charges =  -0.00000
 Mulliken charges with hydrogens summed into heavy atoms:
               1
     1  C   -0.001312
     2  C    0.015962
     3  C    0.006900
     4  C    0.138989
     5  C    0.205087
     6  C    0.024352
    17  N   -0.424048
    18  C    0.303909
    19  C    0.348000
    20  C   -0.039436
    22  C   -0.019124
    24  C    0.427769
    27  N   -0.528202
    28  C    0.219117
    31  C    0.218043
    34  N   -0.757896
    35  S    1.249299
    36  O   -0.645356
    37  O   -0.670064
    38  C    0.048840
    39  C    0.027953
    40  C   -0.048414
    41  C   -0.013151
    42  C    0.000416
    43  C   -0.041171
    49  O   -0.231180
    51  C    0.652480
    52  O   -0.522004
    53  O   -0.161010
    55  C   -0.003008
    58  C    0.215704
    61  C   -0.041848
    65  C    0.020101
    68  C   -0.011950
    72  C    0.017231
    75  C    0.019024
 Electronic spatial extent (au):  <R**2>=          15017.6809
 Charge=             -0.0000 electrons
 Dipole moment (field-independent basis, Debye):
    X=              1.5438    Y=             -0.2968    Z=             -6.5977  Tot=              6.7824
 Quadrupole moment (field-independent basis, Debye-Ang):
   XX=           -198.7561   YY=           -222.6582   ZZ=           -222.3175
   XY=            -11.7702   XZ=             -0.5746   YZ=             12.5559
 Traceless Quadrupole moment (field-independent basis, Debye-Ang):
   XX=             15.8211   YY=             -8.0809   ZZ=             -7.7402
   XY=            -11.7702   XZ=             -0.5746   YZ=             12.5559
 Octapole moment (field-independent basis, Debye-Ang**2):
  XXX=             72.9465  YYY=            -29.6599  ZZZ=             -0.3697  XYY=             21.0071
  XXY=            -12.1698  XXZ=            -26.0101  XZZ=             -6.4197  YZZ=             19.3546
  YYZ=             10.0163  XYZ=            -16.5500
 Hexadecapole moment (field-independent basis, Debye-Ang**3):
 XXXX=         -10024.6177 YYYY=          -5790.7743 ZZZZ=          -3811.2319 XXXY=           -171.1780
 XXXZ=             -9.6801 YYYX=            -97.2652 YYYZ=             81.5524 ZZZX=            -75.1301
 ZZZY=             16.0375 XXYY=          -2635.5858 XXZZ=          -2371.7423 YYZZ=          -1727.3241
 XXYZ=             48.3768 YYXZ=             59.1611 ZZXY=            -46.0906
 N-N= 4.895625700978D+03 E-N=-1.444380557124D+04  KE= 1.976478662476D+03
 No NMR shielding tensors so no spin-rotation constants.
 Leave Link  601 at Thu Feb  7 23:30:42 2019, MaxMem=   104857600 cpu:              20.8 elap:               1.0
 (Enter /home/xinyan/g16/l701.exe)
 ... and contract with generalized density number  0.
 Compute integral first derivatives.
 R6Disp: Adding Grimme-D3 dispersion energy 1st derivatives to the gradient.
 Leave Link  701 at Thu Feb  7 23:30:43 2019, MaxMem=   104857600 cpu:              28.3 elap:               1.3
 (Enter /home/xinyan/g16/l702.exe)
 L702 exits ... SP integral derivatives will be done elsewhere.
 Leave Link  702 at Thu Feb  7 23:30:44 2019, MaxMem=   104857600 cpu:               1.4 elap:               0.1
 (Enter /home/xinyan/g16/l703.exe)
 Integral derivatives from FoFJK, PRISM(SPDF).
 Compute integral first derivatives, UseDBF=F ICtDFT=           0.
 Calling FoFJK, ICntrl=      2127 FMM=T ISym2X=0 I1Cent= 0 IOpClX= 0 NMat=1 NMatS=1 NMatT=0.
 FoFJK:  IHMeth= 1 ICntrl=    2127 DoSepK=F KAlg= 0 I1Cent=           0 FoldK=F
 IRaf=         0 NMat=       1 IRICut=       1 DoRegI=T DoRafI=F ISym2E= 0 IDoP0=0 IntGTp=1.
 FoFCou: FMM=T IPFlag=           0 FMFlag=      100000 FMFlg1=        2001
         NFxFlg=           0 DoJE=F BraDBF=F KetDBF=F FulRan=T
         wScrn=  0.000000 ICntrl=      2127 IOpCl=  0 I1Cent=           0 NGrid=           0
         NMat0=    1 NMatS0=      1 NMatT0=    0 NMatD0=    1 NMtDS0=    0 NMtDT0=    0
 Symmetry not used in FoFCou.
 FMM levels:  10  Number of levels for PrismC:   9
 Leave Link  703 at Thu Feb  7 23:31:16 2019, MaxMem=   104857600 cpu:             767.3 elap:              32.3
 (Enter /home/xinyan/g16/l716.exe)
 Dipole        = 6.07386425D-01-1.16761998D-01-2.59572075D+00
 ***** Axes restored to original set *****
 -------------------------------------------------------------------
 Center     Atomic                   Forces (Hartrees/Bohr)
 Number     Number              X              Y              Z
 -------------------------------------------------------------------
      1        6           0.000023766   -0.000102296   -0.000012073
      2        6           0.000115494   -0.000042901    0.000149294
      3        6           0.000073352    0.000014154    0.000030840
      4        6           0.000072466    0.000177907    0.000186022
      5        6          -0.000001362    0.000170383   -0.000109826
      6        6           0.000040798    0.000100890    0.000192395
      7        1           0.000066087    0.000074539    0.000047262
      8        1           0.000081821   -0.000021804    0.000076413
      9        1           0.000019830   -0.000006154    0.000122825
     10        1          -0.000078198    0.000035349    0.000131415
     11        1          -0.000010177   -0.000078070    0.000160471
     12        1           0.000109453    0.000001225    0.000179465
     13        1          -0.000044239   -0.000110166    0.000196358
     14        1           0.000084917   -0.000059720    0.000149371
     15        1           0.000030047    0.000026580    0.000121387
     16        1          -0.000008958    0.000093054    0.000070808
     17        7           0.000053754    0.000042649    0.000062358
     18        6           0.000031360    0.000036237   -0.000008014
     19        6           0.000080981    0.000050419    0.000013392
     20        6           0.000043283    0.000005276   -0.000013739
     21        1           0.000067640    0.000104503    0.000080041
     22        6          -0.000000665   -0.000047053   -0.000005744
     23        1           0.000051383    0.000046012    0.000017346
     24        6           0.000104325   -0.000049823   -0.000068879
     25        1           0.000038035    0.000011469   -0.000004744
     26        1           0.000037660   -0.000059924   -0.000073511
     27        7           0.000041080   -0.000071880   -0.000068606
     28        6           0.000057649   -0.000162851   -0.000131680
     29        1           0.000035744   -0.000143756   -0.000174133
     30        1           0.000116323   -0.000179099   -0.000106992
     31        6           0.000059033   -0.000065941   -0.000112287
     32        1           0.000004385   -0.000070009   -0.000101554
     33        1           0.000063596   -0.000046790   -0.000022978
     34        7           0.000207130    0.000196007    0.000084740
     35       16          -0.000059327   -0.000027120   -0.000009927
     36        8           0.000010430    0.000071351   -0.000161934
     37        8           0.000134016    0.000060507    0.000028737
     38        6          -0.000226870    0.000195599   -0.000016394
     39        6          -0.000119202    0.000169018   -0.000109393
     40        6           0.000121043   -0.000000100    0.000064066
     41        6           0.000005439   -0.000027892   -0.000209253
     42        6          -0.000078710    0.000011146   -0.000306114
     43        6          -0.000313483    0.000149473   -0.000284384
     44        1          -0.000113952    0.000185493    0.000156352
     45        1           0.000133672   -0.000016283    0.000061739
     46        1           0.000132013   -0.000129780   -0.000244378
     47        1          -0.000093871   -0.000009361   -0.000461047
     48        1          -0.000350861    0.000187987   -0.000354773
     49        8           0.000381287    0.000536838    0.000023353
     50        1          -0.000114343   -0.000057888   -0.000111044
     51        6          -0.000259860    0.000203491    0.000186700
     52        8           0.000038201   -0.000101292   -0.000014223
     53        8          -0.000094380    0.000022837    0.000232684
     54        1          -0.000026124    0.000123452    0.000067910
     55        6           0.000224545   -0.000280500   -0.000018666
     56        1           0.000296804   -0.000141545    0.000189182
     57        1           0.000328037   -0.000176641   -0.000065568
     58        6          -0.000407556    0.000497768   -0.000132007
     59        1          -0.000571620   -0.000165151   -0.000045501
     60        1          -0.000709717    0.000441185    0.000136197
     61        6          -0.000070442   -0.000074681    0.000077529
     62        1          -0.000180789   -0.000016360    0.000175005
     63        1          -0.000143910   -0.000183032    0.000090113
     64        1          -0.000066402   -0.000159387    0.000014746
     65        6           0.000083693   -0.000057258    0.000113231
     66        1           0.000049803    0.000022910    0.000031252
     67        1           0.000012257   -0.000063415    0.000199188
     68        6          -0.000004031    0.000008912    0.000123428
     69        1          -0.000105449    0.000076141    0.000173167
     70        1           0.000014675   -0.000096070    0.000203732
     71        1           0.000047026    0.000042776    0.000039604
     72        6           0.000055040   -0.000177854   -0.000184612
     73        1           0.000099212   -0.000238360   -0.000193048
     74        1           0.000002741   -0.000177119   -0.000219834
     75        6           0.000066707   -0.000170088   -0.000093877
     76        1           0.000137018   -0.000180485   -0.000072501
     77        1           0.000069444   -0.000147640   -0.000136878
 -------------------------------------------------------------------
 Cartesian Forces:  Max     0.000709717 RMS     0.000154278
 Z-matrix is all fixed cartesians, so copy forces.
 Leave Link  716 at Thu Feb  7 23:31:16 2019, MaxMem=   104857600 cpu:               2.4 elap:               0.1
 (Enter /home/xinyan/g16/l103.exe)

 GradGradGradGradGradGradGradGradGradGradGradGradGradGradGradGradGradGrad
 Berny optimization.
 Search for a local minimum.
 Step number   1 out of a maximum of    2
 All quantities printed in internal units (Hartrees-Bohrs-Radians)
 Second derivative matrix not updated -- first step.
 ITU=  0
     Eigenvalues ---   -0.00000   0.00000   0.00000   0.00000   0.00000
     Eigenvalues ---    0.00000   0.00000   0.00000   0.00000   0.00000
     Eigenvalues ---    0.00000   0.00000   0.00013   0.00018   0.00033
     Eigenvalues ---    0.00063   0.00115   0.00133   0.00166   0.00180
     Eigenvalues ---    0.00203   0.00219   0.00277   0.00284   0.00393
     Eigenvalues ---    0.00445   0.00505   0.00509   0.00589   0.00594
     Eigenvalues ---    0.00662   0.00673   0.00782   0.00975   0.01100
     Eigenvalues ---    0.01226   0.01646   0.01723   0.01735   0.01846
     Eigenvalues ---    0.01885   0.02009   0.02215   0.02391   0.02509
     Eigenvalues ---    0.02553   0.02732   0.02799   0.03091   0.03420
     Eigenvalues ---    0.03511   0.03549   0.03565   0.03646   0.04081
     Eigenvalues ---    0.04152   0.04217   0.04315   0.04626   0.04792
     Eigenvalues ---    0.04858   0.04880   0.05000   0.05050   0.05089
     Eigenvalues ---    0.05104   0.05133   0.05163   0.05302   0.05352
     Eigenvalues ---    0.05499   0.05596   0.05663   0.05694   0.05753
     Eigenvalues ---    0.05763   0.05794   0.06142   0.06242   0.06405
     Eigenvalues ---    0.06509   0.06569   0.06845   0.06965   0.07043
     Eigenvalues ---    0.07090   0.07208   0.07231   0.07291   0.07344
     Eigenvalues ---    0.07555   0.07922   0.07942   0.08019   0.08123
     Eigenvalues ---    0.08169   0.08571   0.08639   0.09113   0.09684
     Eigenvalues ---    0.09757   0.10026   0.10091   0.10216   0.10580
     Eigenvalues ---    0.11201   0.11420   0.11538   0.11918   0.12275
     Eigenvalues ---    0.12807   0.12913   0.13014   0.13020   0.13281
     Eigenvalues ---    0.13730   0.13780   0.13945   0.14195   0.14357
     Eigenvalues ---    0.15809   0.16368   0.16620   0.16686   0.16756
     Eigenvalues ---    0.16889   0.17203   0.17322   0.17633   0.17713
     Eigenvalues ---    0.18626   0.19124   0.20292   0.20637   0.20704
     Eigenvalues ---    0.20786   0.21783   0.22005   0.23149   0.24728
     Eigenvalues ---    0.26458   0.27613   0.29731   0.29788   0.30105
     Eigenvalues ---    0.30267   0.31606   0.32456   0.34288   0.34800
     Eigenvalues ---    0.35043   0.36772   0.39319   0.41783   0.42360
     Eigenvalues ---    0.44047   0.44846   0.45090   0.48446   0.49288
     Eigenvalues ---    0.50300   0.56086   0.57432   0.59203   0.62585
     Eigenvalues ---    0.65108   0.65781   0.67979   0.68282   0.69233
     Eigenvalues ---    0.70669   0.75529   0.78131   0.78397   0.79637
     Eigenvalues ---    0.82229   0.82989   0.83926   0.85836   0.87100
     Eigenvalues ---    0.88982   0.89493   0.90537   0.91131   0.92383
     Eigenvalues ---    0.93388   0.94059   0.94482   0.94848   0.95425
     Eigenvalues ---    0.96026   0.97470   0.99761   0.99825   1.00241
     Eigenvalues ---    1.01216   1.02105   1.04075   1.04427   1.05505
     Eigenvalues ---    1.05947   1.06220   1.06463   1.07966   1.08806
     Eigenvalues ---    1.10109   1.14156   1.16337   1.18093   1.20219
     Eigenvalues ---    1.23140   1.24216   1.28063   1.36919   1.39650
     Eigenvalues ---    1.48365   1.54042   1.56989   1.59417   1.60486
     Eigenvalues ---    1.70973   1.75589   1.81652   2.11779   2.28785
 Eigenvalue     1 is  -2.22D-16 should be greater than     0.000000 Eigenvector:
                          Y71       Y69       Y66       Y68       Y65
   1                    0.17847   0.17847   0.17847   0.17847   0.17847
                          Y70       Y57       Y67       Y55       Y52
   1                    0.17847   0.17847   0.17847   0.17847   0.17847
 Eigenvalue     2 is   0.00D+00 Eigenvector:
                          X66       X52       X69       X67       X65
   1                    0.17030   0.17030   0.17030   0.17030   0.17030
                          X68       X51       X71       X55       X54
   1                    0.17030   0.17030   0.17030   0.17030   0.17030
 Eigenvalue     3 is   4.44D-16 Eigenvector:
                          Y46       Y41       Y45       Y47       Y40
   1                    0.15356   0.15356   0.15356   0.15356   0.15356
                          Y42       Y39       Y43       Y44       Y48
   1                    0.15356   0.15356   0.15356   0.15356   0.15356
 Eigenvalue     4 is   3.08D-09 Eigenvector:
                          Z44       Z49       Z50       Z45       X59
   1                    0.27381   0.25026   0.24706   0.22062  -0.20267
                          Z39       Z60       Z40       Z58       X60
   1                    0.20209   0.18468   0.17213   0.17095  -0.17042
 Eigenvalue     5 is   7.32D-09 Eigenvector:
                          Z47       X45       X46       Z48       X40
   1                    0.24081  -0.23980  -0.23801   0.18883  -0.18454
                          X41       Z42       Y49       Z43       Y60
   1                   -0.18381   0.16976  -0.14672   0.14056  -0.13564
 Eigenvalue     6 is   9.76D-09 Eigenvector:
                          Z54       Z53       Z52       Z69       Z51
   1                    0.45003   0.34252   0.31726  -0.26220   0.25851
                          Z70       Z71       Z68       Y66       Y69
   1                   -0.24031  -0.21518  -0.19349  -0.18474  -0.17623
 Eigenvalue     7 is   2.44D-08 Eigenvector:
                          X54       X69       X53       X70       Y54
   1                    0.41114  -0.34584   0.34410  -0.25712  -0.24506
                          X68       Y71       X51       X52       X71
   1                   -0.22602   0.22244   0.20579   0.18925  -0.17575
 Eigenvalue     8 is   4.56D-08 Eigenvector:
                          X50       Y47       Y44       X49       Y60
   1                    0.35913  -0.35902   0.27667   0.26318   0.23911
                          Y48       Y42       X47       Y49       Y46
   1                   -0.22256  -0.21759  -0.21278   0.20543  -0.17122
 Eigenvalue     9 is   8.60D-08 Eigenvector:
                          Y45       Y59       Y46       X45       Y40
   1                    0.30200  -0.24040   0.23378   0.20282   0.19783
                          Y48       X46       Y41       Z50       Z69
   1                   -0.17140   0.16609   0.15976  -0.15749  -0.14292
 Eigenvalue    10 is   1.13D-07 Eigenvector:
                          X59       X60       X48       X58       Y48
   1                    0.20676   0.19461   0.17030   0.15508   0.15246
                          Y73       Y59       Y77       Y74       Y72
   1                    0.14910   0.13573   0.13422   0.13365   0.12882
 Eigenvalue    11 is   1.82D-07 Eigenvector:
                          Y64       Y62       Y61       Y63       Y37
   1                    0.25100   0.20869   0.20275   0.18984   0.15177
                          Z76       Y7        Z60       Y16       Z77
   1                   -0.15143  -0.14261   0.14260  -0.14111  -0.13976
 Eigenvalue    12 is   3.83D-06 Eigenvector:
                          X52       X66       X56       Z67       Z57
   1                    0.34040   0.33345  -0.31251  -0.29713   0.28544
                          X70       Z71       Y52       Y67       Y57
   1                   -0.27330   0.25293  -0.19928  -0.19541   0.18828
 Quadratic step=1.721D+01 exceeds max=3.000D-01 adjusted using Lamda=-6.510D-03.
 Angle between NR and scaled steps=  24.05 degrees.
 Angle between quadratic step and forces=  27.06 degrees.
 Linear search not attempted -- first point.
 B after Tr=     0.000188    0.001219   -0.000307
         Rot=    1.000000    0.000122   -0.000002   -0.000007 Ang=   0.01 deg.
 Variable       Old X    -DE/DX   Delta X   Delta X   Delta X     New X
                                 (Linear)    (Quad)   (Total)
    X1       -9.35598   0.00002   0.00000   0.00079   0.00097  -9.35501
    Y1        0.45025  -0.00010   0.00000  -0.00304  -0.00208   0.44817
    Z1       -0.56163  -0.00001   0.00000   0.01796   0.01757  -0.54405
    X2       -9.63586   0.00012   0.00000   0.00634   0.00654  -9.62932
    Y2       -1.92601  -0.00004   0.00000  -0.00184  -0.00128  -1.92729
    Z2       -2.19034   0.00015   0.00000   0.01551   0.01571  -2.17463
    X3       -7.08326   0.00007   0.00000   0.00725   0.00746  -7.07580
    Y3       -2.71427   0.00001   0.00000   0.00713   0.00745  -2.70682
    Z3       -3.31335   0.00003   0.00000   0.01209   0.01247  -3.30088
    X4       -5.21139   0.00007   0.00000   0.00940   0.00963  -5.20176
    Y4       -3.14857   0.00018   0.00000   0.00930   0.01016  -3.13840
    Z4       -1.16469   0.00019   0.00000   0.01071   0.01119  -1.15351
    X5       -4.82816  -0.00000   0.00000   0.00631   0.00651  -4.82165
    Y5       -0.70717   0.00017   0.00000   0.00959   0.01085  -0.69632
    Z5        0.42783  -0.00011   0.00000   0.01097   0.01085   0.43868
    X6       -7.39423   0.00004   0.00000   0.00547   0.00566  -7.38857
    Y6        0.07874   0.00010   0.00000   0.00206   0.00356   0.08230
    Z6        1.53425   0.00019   0.00000   0.01486   0.01456   1.54881
    X7       -7.26919   0.00007   0.00000   0.01089   0.01111  -7.25808
    Y7       -4.42298   0.00007   0.00000   0.00841   0.00845  -4.41453
    Z7       -4.46924   0.00005   0.00000   0.00964   0.01043  -4.45881
    X8      -10.38106   0.00008   0.00000   0.01201   0.01224 -10.36882
    Y8       -3.47863  -0.00002   0.00000  -0.00550  -0.00467  -3.48329
    Z8       -1.03338   0.00008   0.00000   0.01415   0.01473  -1.01865
    X9      -10.99414   0.00002   0.00000   0.00378   0.00398 -10.99016
    Y9       -1.60527  -0.00001   0.00000  -0.00367  -0.00350  -1.60876
    Z9       -3.71821   0.00012   0.00000   0.01739   0.01752  -3.70069
   X10       -8.74964  -0.00008   0.00000  -0.00761  -0.00746  -8.75710
   Y10        2.02662   0.00004   0.00000   0.00108   0.00176   2.02838
   Z10       -1.77082   0.00013   0.00000   0.01908   0.01831  -1.75251
   X11      -11.18769  -0.00001   0.00000   0.00014   0.00032 -11.18737
   Y11        0.97599  -0.00008   0.00000  -0.01108  -0.00995   0.96604
   Z11        0.24580   0.00016   0.00000   0.02185   0.02135   0.26714
   X12       -5.92259   0.00011   0.00000   0.01237   0.01262  -5.90997
   Y12       -4.64068   0.00000   0.00000   0.00830   0.00946  -4.63121
   Z12        0.07561   0.00018   0.00000   0.01166   0.01250   0.08811
   X13       -4.30289  -0.00004   0.00000   0.00216   0.00234  -4.30055
   Y13        0.76460  -0.00011   0.00000   0.01109   0.01203   0.77663
   Z13       -0.94420   0.00020   0.00000   0.01200   0.01152  -0.93268
   X14       -8.03234   0.00008   0.00000   0.01207   0.01228  -8.02005
   Y14       -1.36514  -0.00006   0.00000  -0.00085   0.00097  -1.36417
   Z14        2.87921   0.00015   0.00000   0.01520   0.01525   2.89446
   X15       -7.11593   0.00003   0.00000   0.00199   0.00216  -7.11377
   Y15        1.84498   0.00003   0.00000   0.00222   0.00397   1.84895
   Z15        2.58172   0.00012   0.00000   0.01563   0.01489   2.59662
   X16       -6.42276  -0.00001   0.00000   0.00178   0.00197  -6.42079
   Y16       -1.18015   0.00009   0.00000   0.01087   0.01090  -1.16925
   Z16       -4.54668   0.00007   0.00000   0.01371   0.01371  -4.53297
   X17       -2.69086   0.00005   0.00000   0.00818   0.00841  -2.68244
   Y17       -4.01898   0.00004   0.00000   0.00919   0.00988  -4.00910
   Z17       -2.01857   0.00006   0.00000   0.00680   0.00748  -2.01109
   X18       -1.43239   0.00003   0.00000   0.00709   0.00730  -1.42510
   Y18       -2.77125   0.00004   0.00000   0.00916   0.00942  -2.76183
   Z18       -3.86166  -0.00001   0.00000   0.00597   0.00634  -3.85531
   X19       -1.37759   0.00008   0.00000   0.00780   0.00806  -1.36953
   Y19       -5.57135   0.00005   0.00000   0.00348   0.00457  -5.56678
   Z19       -0.46540   0.00001   0.00000   0.00134   0.00240  -0.46300
   X20        1.11760   0.00004   0.00000   0.00573   0.00594   1.12354
   Y20       -2.99701   0.00001   0.00000   0.00263   0.00285  -2.99416
   Z20       -4.18370  -0.00001   0.00000  -0.00052  -0.00010  -4.18380
   X21       -2.55703   0.00007   0.00000   0.00768   0.00787  -2.54916
   Y21       -1.53829   0.00010   0.00000   0.01402   0.01398  -1.52431
   Z21       -5.04434   0.00008   0.00000   0.01051   0.01059  -5.03375
   X22        1.17613  -0.00000   0.00000   0.00627   0.00653   1.18266
   Y22       -5.88574  -0.00005   0.00000  -0.00402  -0.00295  -5.88869
   Z22       -0.66356  -0.00001   0.00000  -0.00589  -0.00476  -0.66832
   X23       -2.46248   0.00005   0.00000   0.00870   0.00898  -2.45351
   Y23       -6.47154   0.00005   0.00000   0.00381   0.00525  -6.46629
   Z23        1.02276   0.00002   0.00000   0.00217   0.00345   1.02621
   X24        2.56219   0.00010   0.00000   0.00593   0.00617   2.56835
   Y24       -4.45246  -0.00005   0.00000  -0.00514  -0.00449  -4.45695
   Z24       -2.44548  -0.00007   0.00000  -0.00713  -0.00636  -2.45184
   X25        2.01566   0.00004   0.00000   0.00500   0.00519   2.02085
   Y25       -1.95725   0.00001   0.00000   0.00272   0.00258  -1.95467
   Z25       -5.69813  -0.00000   0.00000  -0.00089  -0.00073  -5.69885
   X26        2.10071   0.00004   0.00000   0.00626   0.00654   2.10726
   Y26       -7.06807  -0.00006   0.00000  -0.00947  -0.00805  -7.07612
   Z26        0.72205  -0.00007   0.00000  -0.01056  -0.00915   0.71290
   X27        5.09476   0.00004   0.00000   0.00586   0.00610   5.10086
   Y27       -4.44341  -0.00007   0.00000  -0.01281  -0.01213  -4.45553
   Z27       -2.45712  -0.00007   0.00000  -0.01421  -0.01345  -2.47057
   X28        6.51292   0.00006   0.00000   0.00892   0.00918   6.52210
   Y28       -5.51588  -0.00016   0.00000  -0.02348  -0.02226  -5.53815
   Z28       -0.32654  -0.00013   0.00000  -0.02160  -0.02058  -0.34712
   X29        6.27081   0.00004   0.00000   0.00366   0.00395   6.27476
   Y29       -7.56722  -0.00014   0.00000  -0.02309  -0.02185  -7.58907
   Z29       -0.24413  -0.00017   0.00000  -0.02745  -0.02593  -0.27007
   X30        5.81238   0.00012   0.00000   0.01645   0.01671   5.82909
   Y30       -4.68104  -0.00018   0.00000  -0.02725  -0.02560  -4.70664
   Z30        1.44143  -0.00011   0.00000  -0.01685  -0.01604   1.42539
   X31        6.55291   0.00006   0.00000   0.00761   0.00781   6.56072
   Y31       -2.47144  -0.00007   0.00000  -0.01300  -0.01261  -2.48406
   Z31       -3.76522  -0.00011   0.00000  -0.01256  -0.01229  -3.77751
   X32        7.01427   0.00000   0.00000   0.00076   0.00097   7.01524
   Y32       -3.08373  -0.00007   0.00000  -0.00876  -0.00884  -3.09257
   Z32       -5.69091  -0.00010   0.00000  -0.01556  -0.01514  -5.70605
   X33        5.45481   0.00006   0.00000   0.01204   0.01223   5.46704
   Y33       -0.72295  -0.00005   0.00000  -0.00981  -0.00945  -0.73241
   Z33       -3.83533  -0.00002   0.00000  -0.00440  -0.00455  -3.83988
   X34       -2.70495   0.00021   0.00000   0.00612   0.00632  -2.69863
   Y34       -0.84609   0.00020   0.00000   0.01170   0.01341  -0.83268
   Z34        2.14656   0.00008   0.00000   0.01123   0.01114   2.15769
   X35       -2.76363  -0.00006   0.00000   0.00499   0.00523  -2.75840
   Y35       -2.66415  -0.00003   0.00000  -0.00019   0.00209  -2.66206
   Z35        4.51295  -0.00001   0.00000   0.00191   0.00226   4.51521
   X36       -4.80374   0.00001   0.00000   0.01121   0.01147  -4.79227
   Y36       -4.57557   0.00007   0.00000  -0.00605  -0.00382  -4.57940
   Z36        4.43453  -0.00016   0.00000  -0.01654  -0.01572   4.41881
   X37       -0.19330   0.00013   0.00000   0.00745   0.00771  -0.18559
   Y37       -3.72913   0.00006   0.00000   0.00665   0.00907  -3.72006
   Z37        4.92848   0.00003   0.00000   0.00485   0.00545   4.93394
   X38       -1.78534  -0.00023   0.00000  -0.03624  -0.03612  -1.82146
   Y38        5.08824   0.00020   0.00000   0.02383   0.02506   5.11329
   Z38        0.15496  -0.00002   0.00000  -0.01085  -0.01240   0.14256
   X39       -0.57907  -0.00012   0.00000  -0.01410  -0.01396  -0.59303
   Y39        3.77150   0.00017   0.00000   0.02172   0.02249   3.79399
   Z39       -1.79643  -0.00011   0.00000   0.00420   0.00297  -1.79346
   X40       -1.65464   0.00012   0.00000   0.00593   0.00606  -1.64859
   Y40        3.71172  -0.00000   0.00000   0.00612   0.00629   3.71802
   Z40       -4.19846   0.00006   0.00000  -0.00406  -0.00527  -4.20373
   X41       -3.96892   0.00001   0.00000   0.00544   0.00555  -3.96337
   Y41        4.88653  -0.00003   0.00000  -0.00453  -0.00451   4.88202
   Z41       -4.66615  -0.00021   0.00000  -0.02863  -0.03011  -4.69626
   X42       -5.20279  -0.00008   0.00000  -0.01521  -0.01511  -5.21791
   Y42        6.14252   0.00001   0.00000   0.00034   0.00082   6.14333
   Z42       -2.70970  -0.00031   0.00000  -0.04473  -0.04652  -2.75622
   X43       -4.10424  -0.00031   0.00000  -0.03662  -0.03652  -4.14076
   Y43        6.24430   0.00015   0.00000   0.01360   0.01467   6.25897
   Z43       -0.31950  -0.00028   0.00000  -0.03541  -0.03722  -0.35672
   X44        1.15270  -0.00011   0.00000  -0.01362  -0.01348   1.13922
   Y44        2.73419   0.00019   0.00000   0.02986   0.03076   2.76495
   Z44       -1.39900   0.00016   0.00000   0.02324   0.02225  -1.37675
   X45       -0.68289   0.00013   0.00000   0.02187   0.02200  -0.66089
   Y45        2.73149  -0.00002   0.00000   0.00201   0.00183   2.73331
   Z45       -5.72169   0.00006   0.00000   0.00874   0.00777  -5.71392
   X46       -4.80705   0.00013   0.00000   0.02117   0.02127  -4.78578
   Y46        4.82434  -0.00013   0.00000  -0.01638  -0.01682   4.80752
   Z46       -6.53838  -0.00024   0.00000  -0.03530  -0.03676  -6.57514
   X47       -7.01848  -0.00009   0.00000  -0.01485  -0.01477  -7.03325
   Y47        7.04155  -0.00001   0.00000  -0.00613  -0.00576   7.03579
   Z47       -3.03671  -0.00046   0.00000  -0.06473  -0.06672  -3.10344
   X48       -5.06632  -0.00035   0.00000  -0.05296  -0.05286  -5.11918
   Y48        7.21785   0.00019   0.00000   0.01783   0.01926   7.23711
   Z48        1.21394  -0.00035   0.00000  -0.04830  -0.05035   1.16359
   X49        0.49369   0.00038   0.00000  -0.01205  -0.01188   0.48181
   Y49        2.94763   0.00054   0.00000   0.05772   0.05980   3.00743
   Z49        3.51105   0.00002   0.00000  -0.00426  -0.00530   3.50575
   X50       -0.62006  -0.00011   0.00000   0.02064   0.02082  -0.59924
   Y50        1.54249  -0.00006   0.00000   0.03467   0.03659   1.57908
   Z50        2.89344  -0.00011   0.00000  -0.01320  -0.01389   2.87955
   X51        4.47782  -0.00026   0.00000   0.00226   0.00245   4.48027
   Y51        0.39325   0.00020   0.00000  -0.00539  -0.00347   0.38978
   Z51        2.59289   0.00019   0.00000   0.01553   0.01511   2.60801
   X52        3.79652   0.00004   0.00000  -0.00578  -0.00559   3.79093
   Y52       -0.31237  -0.00010   0.00000  -0.00203  -0.00063  -0.31301
   Z52        0.50934  -0.00001   0.00000   0.01689   0.01664   0.52598
   X53        4.01195  -0.00009   0.00000  -0.00437  -0.00416   4.00779
   Y53       -0.86419   0.00002   0.00000  -0.00018   0.00224  -0.86195
   Z53        4.70457   0.00023   0.00000   0.01724   0.01713   4.72170
   X54        2.58267  -0.00003   0.00000  -0.01351  -0.01328   2.56939
   Y54       -2.06619   0.00012   0.00000   0.01059   0.01294  -2.05325
   Z54        4.46100   0.00007   0.00000   0.01876   0.01894   4.47994
   X55        6.04758   0.00022   0.00000   0.02287   0.02303   6.07061
   Y55        2.73819  -0.00028   0.00000  -0.01843  -0.01640   2.72180
   Z55        3.02800  -0.00002   0.00000   0.01127   0.01028   3.03828
   X56        5.16213   0.00030   0.00000   0.04268   0.04283   5.20496
   Y56        3.76570  -0.00014   0.00000  -0.02065  -0.01824   3.74746
   Z56        4.58867   0.00019   0.00000   0.02402   0.02278   4.61145
   X57        7.92506   0.00033   0.00000   0.02619   0.02636   7.95142
   Y57        2.14665  -0.00018   0.00000  -0.03134  -0.02912   2.11754
   Z57        3.69007  -0.00007   0.00000  -0.00843  -0.00929   3.68078
   X58       -0.61558  -0.00041   0.00000  -0.05808  -0.05795  -0.67353
   Y58        5.22415   0.00050   0.00000   0.03675   0.03864   5.26278
   Z58        2.76270  -0.00013   0.00000  -0.00168  -0.00327   2.75943
   X59       -2.06322  -0.00057   0.00000  -0.08157  -0.08145  -2.14467
   Y59        5.86452  -0.00017   0.00000  -0.00213   0.00007   5.86458
   Z59        4.11734  -0.00005   0.00000  -0.00848  -0.01020   4.10713
   X60        0.88562  -0.00071   0.00000  -0.08979  -0.08968   0.79594
   Y60        6.66312   0.00044   0.00000   0.06928   0.07119   6.73430
   Z60        2.77278   0.00014   0.00000   0.01573   0.01378   2.78655
   X61       -3.29349  -0.00007   0.00000  -0.01309  -0.01287  -3.30636
   Y61       -0.71352  -0.00007   0.00000  -0.01715  -0.01421  -0.72773
   Z61        7.22667   0.00008   0.00000   0.01078   0.01067   7.23734
   X62       -1.82918  -0.00018   0.00000  -0.02201  -0.02180  -1.85098
   Y62        0.74242  -0.00002   0.00000  -0.00809  -0.00514   0.73728
   Z62        7.21044   0.00018   0.00000   0.02297   0.02249   7.23293
   X63       -5.16617  -0.00014   0.00000  -0.01786  -0.01765  -5.18382
   Y63        0.13536  -0.00018   0.00000  -0.02755  -0.02468   0.11068
   Z63        7.05688   0.00009   0.00000   0.01065   0.01034   7.06722
   X64       -3.16452  -0.00007   0.00000  -0.01090  -0.01065  -3.17517
   Y64       -1.87557  -0.00016   0.00000  -0.02568  -0.02233  -1.89790
   Z64        8.92431   0.00001   0.00000   0.00473   0.00490   8.92921
   X65        6.25016   0.00008   0.00000   0.00855   0.00869   6.25884
   Y65        4.38706  -0.00006   0.00000  -0.00735  -0.00588   4.38118
   Z65        0.67631   0.00011   0.00000   0.01780   0.01640   0.69272
   X66        6.98507   0.00005   0.00000   0.00351   0.00365   6.98872
   Y66        3.26038   0.00002   0.00000   0.00234   0.00343   3.26382
   Z66       -0.90030   0.00003   0.00000   0.00844   0.00731  -0.89299
   X67        4.34633   0.00001   0.00000   0.00414   0.00426   4.35060
   Y67        4.97578  -0.00006   0.00000  -0.00942  -0.00811   4.96767
   Z67        0.11289   0.00020   0.00000   0.03045   0.02892   0.14181
   X68        7.91506  -0.00000   0.00000   0.00248   0.00258   7.91764
   Y68        6.70241   0.00001   0.00000  -0.00359  -0.00199   6.70041
   Z68        1.09905   0.00012   0.00000   0.02137   0.01940   1.11844
   X69        8.06495  -0.00011   0.00000  -0.01201  -0.01193   8.05303
   Y69        7.84354   0.00008   0.00000   0.00701   0.00819   7.85172
   Z69       -0.61800   0.00017   0.00000   0.02712   0.02487  -0.59313
   X70        7.14456   0.00001   0.00000   0.00576   0.00585   7.15042
   Y70        7.90656  -0.00010   0.00000  -0.01516  -0.01321   7.89335
   Z70        2.59526   0.00020   0.00000   0.03240   0.03014   2.62540
   X71        9.82882   0.00005   0.00000   0.00784   0.00795   9.83678
   Y71        6.15061   0.00004   0.00000   0.00112   0.00287   6.15348
   Z71        1.66339   0.00004   0.00000   0.00766   0.00581   1.66921
   X72        9.23564   0.00006   0.00000   0.00945   0.00969   9.24533
   Y72       -4.72887  -0.00018   0.00000  -0.02927  -0.02815  -4.75702
   Z72       -0.86062  -0.00018   0.00000  -0.02715  -0.02633  -0.88695
   X73       10.36305   0.00010   0.00000   0.01483   0.01508  10.37813
   Y73       -4.64733  -0.00024   0.00000  -0.03799  -0.03643  -4.68376
   Z73        0.86551  -0.00019   0.00000  -0.03024  -0.02944   0.83607
   X74       10.12557   0.00000   0.00000   0.00177   0.00203  10.12760
   Y74       -6.07180  -0.00018   0.00000  -0.02750  -0.02669  -6.09849
   Z74       -2.15839  -0.00022   0.00000  -0.03422  -0.03308  -2.19147
   X75        8.91724   0.00007   0.00000   0.01266   0.01287   8.93011
   Y75       -2.14851  -0.00017   0.00000  -0.02427  -0.02346  -2.17197
   Z75       -2.12793  -0.00009   0.00000  -0.01769  -0.01750  -2.14542
   X76        8.53514   0.00014   0.00000   0.02013   0.02032   8.55546
   Y76       -0.71112  -0.00018   0.00000  -0.02811  -0.02695  -0.73808
   Z76       -0.69319  -0.00007   0.00000  -0.01184  -0.01200  -0.70519
   X77       10.56259   0.00007   0.00000   0.01114   0.01134  10.57393
   Y77       -1.56428  -0.00015   0.00000  -0.02466  -0.02409  -1.58837
   Z77       -3.22758  -0.00014   0.00000  -0.02017  -0.02013  -3.24770
         Item               Value     Threshold  Converged?
 Maximum Force            0.000710     0.000450     NO 
 RMS     Force            0.000154     0.000300     YES
 Maximum Displacement     0.089677     0.001800     NO 
 RMS     Displacement     0.019718     0.001200     NO 
 Predicted change in Energy=-6.099542D-04
 GradGradGradGradGradGradGradGradGradGradGradGradGradGradGradGradGradGrad

 Leave Link  103 at Thu Feb  7 23:31:17 2019, MaxMem=   104857600 cpu:              31.3 elap:               1.4
 (Enter /home/xinyan/g16/l9999.exe)
 1\1\GINC-TSE4\Force\RM062X\6-31G(d)\C27H41N3O5S1\STEVETSE\07-Feb-2019\
 0\\#p M062X/6-31G* em=gd3 force int=ultrafine\\Title\\0,1\C,-4.95097,0
 .23826,-0.2972\C,-5.09908,-1.0192,-1.15908\C,-3.7483,-1.43633,-1.75335
 \C,-2.75775,-1.66615,-0.61633\C,-2.55495,-0.37422,0.2264\C,-3.91286,0.
 04167,0.81189\H,-3.84669,-2.34054,-2.36502\H,-5.49342,-1.84081,-0.5468
 4\H,-5.81785,-0.84947,-1.96759\H,-4.63011,1.07244,-0.93708\H,-5.92027,
 0.51647,0.13007\H,-3.1341,-2.45574,0.04001\H,-2.27699,0.40461,-0.49965
 \H,-4.25053,-0.7224,1.52361\H,-3.76559,0.97632,1.36619\H,-3.39878,-0.6
 2451,-2.406\N,-1.42394,-2.12675,-1.06818\C,-0.75799,-1.46648,-2.0435\C
 ,-0.72899,-2.94823,-0.24628\C,0.59141,-1.58595,-2.21392\H,-1.35312,-0.
 81403,-2.66935\C,0.62238,-3.1146,-0.35114\H,-1.30309,-3.42459,0.54122\
 C,1.35585,-2.35614,-1.29409\H,1.06664,-1.03573,-3.01532\H,1.11165,-3.7
 4026,0.38209\N,2.69603,-2.35135,-1.30025\C,3.44649,-2.91888,-0.1728\H,
 3.31837,-4.0044,-0.12919\H,3.07578,-2.4771,0.76277\C,3.46765,-1.30783,
 -1.99247\H,3.71179,-1.63184,-3.0115\H,2.88656,-0.38257,-2.02957\N,-1.4
 314,-0.44773,1.13591\S,-1.46245,-1.40981,2.38815\O,-2.54203,-2.42129,2
 .34665\O,-0.10229,-1.97337,2.60804\C,-0.94476,2.69258,0.082\C,-0.30643
 ,1.99579,-0.95063\C,-0.8756,1.96416,-2.22173\C,-2.10026,2.58584,-2.469
 22\C,-2.7532,3.25048,-1.43391\C,-2.17187,3.30434,-0.16907\H,0.60998,1.
 44687,-0.74032\H,-0.36137,1.44544,-3.02779\H,-2.54378,2.55293,-3.45996
 \H,-3.71402,3.72623,-1.60696\H,-2.68098,3.81952,0.64239\O,0.26125,1.55
 982,1.85797\H,-0.32812,0.81625,1.53114\C,2.36956,0.2081,1.3721\O,2.009
 03,-0.1653,0.26953\O,2.12303,-0.45731,2.48955\H,1.36669,-1.09338,2.360
 66\C,3.20024,1.44899,1.60235\H,2.73168,1.99272,2.42822\H,4.19376,1.135
 96,1.9527\C,-0.32575,2.7645,1.46196\H,-1.09181,3.10337,2.1788\H,0.4686
 5,3.52597,1.46729\C,-1.74284,-0.37758,3.82419\H,-0.96796,0.39287,3.815
 6\H,-2.73382,0.07163,3.73434\H,-1.67459,-0.99251,4.72254\C,3.30744,2.3
 2153,0.35789\H,3.69634,1.72532,-0.47642\H,2.29998,2.63307,0.05974\C,4.
 18847,3.54676,0.58159\H,4.26779,4.15062,-0.32703\H,3.78074,4.18397,1.3
 7335\H,5.20119,3.25476,0.88023\C,4.88729,-2.50241,-0.45542\H,5.48389,-
 2.45926,0.45801\H,5.35822,-3.21306,-1.14217\C,4.7188,-1.13694,-1.12605
 \H,4.5166,-0.37631,-0.36682\H,5.58948,-0.82778,-1.70796\\Version=ES64L
 -G16RevA.03\State=1-A\HF=-1991.387709\RMSD=5.338e-09\RMSF=1.543e-04\Di
 pole=0.6105552,-0.0708097,-2.5966375\Quadrupole=10.5695915,-5.4236805,
 -5.145911,-9.8600907,-0.075236,9.3088382\PG=C01 [X(C27H41N3O5S1)]\\@


 IT IS WELL TO REMEMBER THAT MAN IS A PART OF NATURE AND THAT HIS WORKS,
 WHATEVER THEY MAY BE, ARE NO MORE "UNNATURAL" THAN 
 THE FLIGHT OF AN EAGLE OR THE PASSAGE OF A TORNADO.

                                    -- CHARLES MCCARRY IN "THE GREAT SOUTHWEST"
 Job cpu time:       0 days  1 hours 19 minutes 40.2 seconds.
 Elapsed time:       0 days  0 hours  3 minutes 20.6 seconds.
 File lengths (MBytes):  RWF=    216 Int=      0 D2E=      0 Chk=     25 Scr=      1
 Normal termination of Gaussian 16 at Thu Feb  7 23:31:18 2019.
