 Entering Gaussian System, Link 0=g16
 Input=C27N3H41SO5-89.gjf
 Output=C27N3H41SO5-89.log
 Initial command:
 /home/xinyan/g16/l1.exe "/local/home/tmp/Gau-4124.inp" -scrdir="/local/home/tmp/"
 Entering Link 1 = /home/xinyan/g16/l1.exe PID=      4125.
  
 Copyright (c) 1988,1990,1992,1993,1995,1998,2003,2009,2016,
            Gaussian, Inc.  All Rights Reserved.
  
 This is part of the Gaussian(R) 16 program.  It is based on
 the Gaussian(R) 09 system (copyright 2009, Gaussian, Inc.),
 the Gaussian(R) 03 system (copyright 2003, Gaussian, Inc.),
 the Gaussian(R) 98 system (copyright 1998, Gaussian, Inc.),
 the Gaussian(R) 94 system (copyright 1995, Gaussian, Inc.),
 the Gaussian 92(TM) system (copyright 1992, Gaussian, Inc.),
 the Gaussian 90(TM) system (copyright 1990, Gaussian, Inc.),
 the Gaussian 88(TM) system (copyright 1988, Gaussian, Inc.),
 the Gaussian 86(TM) system (copyright 1986, Carnegie Mellon
 University), and the Gaussian 82(TM) system (copyright 1983,
 Carnegie Mellon University). Gaussian is a federally registered
 trademark of Gaussian, Inc.
  
 This software contains proprietary and confidential information,
 including trade secrets, belonging to Gaussian, Inc.
  
 This software is provided under written license and may be
 used, copied, transmitted, or stored only in accord with that
 written license.
  
 The following legend is applicable only to US Government
 contracts under FAR:
  
                    RESTRICTED RIGHTS LEGEND
  
 Use, reproduction and disclosure by the US Government is
 subject to restrictions as set forth in subparagraphs (a)
 and (c) of the Commercial Computer Software - Restricted
 Rights clause in FAR 52.227-19.
  
 Gaussian, Inc.
 340 Quinnipiac St., Bldg. 40, Wallingford CT 06492
  
  
 ---------------------------------------------------------------
 Warning -- This program may not be used in any manner that
 competes with the business of Gaussian, Inc. or will provide
 assistance to any competitor of Gaussian, Inc.  The licensee
 of this program is prohibited from giving any competitor of
 Gaussian, Inc. access to this program.  By using this program,
 the user acknowledges that Gaussian, Inc. is engaged in the
 business of creating and licensing software in the field of
 computational chemistry and represents and warrants to the
 licensee that it is not a competitor of Gaussian, Inc. and that
 it will not use this program in any manner prohibited above.
 ---------------------------------------------------------------
  

 Cite this work as:
 Gaussian 16, Revision A.03,
 M. J. Frisch, G. W. Trucks, H. B. Schlegel, G. E. Scuseria, 
 M. A. Robb, J. R. Cheeseman, G. Scalmani, V. Barone, 
 G. A. Petersson, H. Nakatsuji, X. Li, M. Caricato, A. V. Marenich, 
 J. Bloino, B. G. Janesko, R. Gomperts, B. Mennucci, H. P. Hratchian, 
 J. V. Ortiz, A. F. Izmaylov, J. L. Sonnenberg, D. Williams-Young, 
 F. Ding, F. Lipparini, F. Egidi, J. Goings, B. Peng, A. Petrone, 
 T. Henderson, D. Ranasinghe, V. G. Zakrzewski, J. Gao, N. Rega, 
 G. Zheng, W. Liang, M. Hada, M. Ehara, K. Toyota, R. Fukuda, 
 J. Hasegawa, M. Ishida, T. Nakajima, Y. Honda, O. Kitao, H. Nakai, 
 T. Vreven, K. Throssell, J. A. Montgomery, Jr., J. E. Peralta, 
 F. Ogliaro, M. J. Bearpark, J. J. Heyd, E. N. Brothers, K. N. Kudin, 
 V. N. Staroverov, T. A. Keith, R. Kobayashi, J. Normand, 
 K. Raghavachari, A. P. Rendell, J. C. Burant, S. S. Iyengar, 
 J. Tomasi, M. Cossi, J. M. Millam, M. Klene, C. Adamo, R. Cammi, 
 J. W. Ochterski, R. L. Martin, K. Morokuma, O. Farkas, 
 J. B. Foresman, and D. J. Fox, Gaussian, Inc., Wallingford CT, 2016.
 
 ******************************************
 Gaussian 16:  ES64L-G16RevA.03 25-Dec-2016
                 7-Feb-2019 
 ******************************************
 %nproc=24
 Will use up to   24 processors via shared memory.
 ------------------------------------------
 #p M062X/6-31G* em=gd3 force int=ultrafine
 ------------------------------------------
 1/10=7,30=1,38=1/1,3;
 2/12=2,17=6,18=5,40=1/2;
 3/5=1,6=6,7=1,11=2,25=1,30=1,71=1,74=-55,75=-5,124=31/1,2,3;
 4//1;
 5/5=2,38=5/2;
 6/7=2,8=2,9=2,10=2,28=1/1;
 7/29=1/1,2,3,16;
 1/10=7,30=1/3;
 99//99;
 Leave Link    1 at Thu Feb  7 13:29:11 2019, MaxMem=           0 cpu:               2.5 elap:               0.1
 (Enter /home/xinyan/g16/l101.exe)
 -----
 Title
 -----
 Symbolic Z-matrix:
 Charge =  0 Multiplicity = 1
 C                    -4.91517   0.24765  -0.42855 
 C                    -5.10244  -1.03101  -1.25076 
 C                    -3.77142  -1.48813  -1.86008 
 C                    -2.77048  -1.71695  -0.73341 
 C                    -2.54124  -0.41598   0.0773 
 C                    -3.86823   0.06412   0.675 
 H                    -3.89449  -2.40365  -2.44844 
 H                    -5.49786  -1.82854  -0.60806 
 H                    -5.83524  -0.86991  -2.04763 
 H                    -4.59363   1.05824  -1.0958 
 H                    -5.86956   0.55334   0.01235 
 H                    -3.15729  -2.48516  -0.05674 
 H                    -2.20891   0.34932  -0.63573 
 H                    -4.22488  -0.66258   1.4124 
 H                    -3.68574   1.01306   1.19072 
 H                    -3.4125   -0.69982  -2.53548 
 N                    -1.44489  -2.19713  -1.17655 
 C                    -0.74576  -1.49488  -2.10821 
 C                    -0.76154  -3.01469  -0.33192 
 C                     0.61065  -1.55167  -2.19358 
 H                    -1.32899  -0.85398  -2.75786 
 C                     0.59523  -3.11217  -0.34561 
 H                    -1.3612   -3.53266   0.40877 
 C                     1.35117  -2.28114  -1.2155 
 H                     1.11227  -0.96372  -2.95036 
 H                     1.06989  -3.72577   0.40678 
 N                     2.67264  -2.19073  -1.12237 
 C                     3.38973  -2.69713   0.0576 
 H                     3.26407  -3.77934   0.15096 
 H                     2.98967  -2.18474   0.94487 
 C                     3.41507  -1.09778  -1.76772 
 H                     3.67585  -1.37753  -2.79588 
 H                     2.79047  -0.20042  -1.76449 
 N                    -1.43631  -0.53108   1.01702 
 S                    -1.5007   -1.40958   2.39185 
 O                    -2.71992  -2.22257   2.35407 
 O                    -0.22299  -2.10381   2.56739 
 C                    -0.69266   2.44142   0.224 
 C                    -0.19377   1.96189  -0.99745 
 C                    -0.94517   2.07612  -2.16583 
 C                    -2.21091   2.66212  -2.14906 
 C                    -2.71902   3.13807  -0.94332 
 C                    -1.96182   3.0282    0.22331 
 H                     0.76065   1.44641  -0.99948 
 H                    -0.53104   1.70951  -3.10304 
 H                    -2.78986   2.75352  -3.06395 
 H                    -3.70198   3.5999   -0.90897 
 H                    -2.36738   3.4125    1.15725 
 O                     0.56486   1.25177   2.08137 
 H                    -0.45854  -0.2837    0.72247 
 C                     1.74031   0.54883   1.46627 
 O                     1.38702  -0.02546   0.33848 
 O                     2.0847   -0.36333   2.4936 
 H                     1.39091  -1.04686   2.46525 
 C                     2.93096   1.54027   1.42964 
 H                     2.83714   2.22739   2.28112 
 H                     3.83063   0.94539   1.63225 
 C                     0.10799   2.45541   1.53085 
 H                    -0.55148   2.89045   2.29357 
 H                     0.94024   3.16569   1.41323 
 C                    -1.62808  -0.22245   3.70854 
 H                    -0.74334   0.41523   3.6274 
 H                    -2.54811   0.34695   3.56545 
 H                    -1.65237  -0.77404   4.64983 
 C                     3.14327   2.32468   0.13764 
 H                     3.31424   1.62472  -0.68857 
 H                     2.24629   2.88797  -0.13959 
 C                     4.32235   3.28896   0.25853 
 H                     4.49947   3.83715  -0.6719 
 H                     4.13994   4.02356   1.051 
 H                     5.2427    2.75267   0.51705 
 C                     4.83094  -2.28626  -0.2204 
 H                     5.42658  -2.24471   0.69319 
 H                     5.30013  -2.99431  -0.91257 
 C                     4.65003  -0.91778  -0.88026 
 H                     4.41619  -0.17853  -0.1096 
 H                     5.52265  -0.58081  -1.44367 
 
 ITRead=  0  0  0  0  0  0  0  0  0  0  0  0  0  0  0  0  0  0  0  0
 ITRead=  0  0  0  0  0  0  0  0  0  0  0  0  0  0  0  0  0  0  0  0
 ITRead=  0  0  0  0  0  0  0  0  0  0  0  0  0  0  0  0  0  0  0  0
 ITRead=  0  0  0  0  0  0  0  0  0  0  0  0  0  0  0  0  0
 MicOpt= -1 -1 -1 -1 -1 -1 -1 -1 -1 -1 -1 -1 -1 -1 -1 -1 -1 -1 -1 -1
 MicOpt= -1 -1 -1 -1 -1 -1 -1 -1 -1 -1 -1 -1 -1 -1 -1 -1 -1 -1 -1 -1
 MicOpt= -1 -1 -1 -1 -1 -1 -1 -1 -1 -1 -1 -1 -1 -1 -1 -1 -1 -1 -1 -1
 MicOpt= -1 -1 -1 -1 -1 -1 -1 -1 -1 -1 -1 -1 -1 -1 -1 -1 -1
 NAtoms=     77 NQM=       77 NQMF=       0 NMMI=      0 NMMIF=      0
                NMic=       0 NMicF=      0.
                    Isotopes and Nuclear Properties:
 (Nuclear quadrupole moments (NQMom) in fm**2, nuclear magnetic moments (NMagM)
  in nuclear magnetons)

  Atom         1           2           3           4           5           6           7           8           9          10
 IAtWgt=          12          12          12          12          12          12           1           1           1           1
 AtmWgt=  12.0000000  12.0000000  12.0000000  12.0000000  12.0000000  12.0000000   1.0078250   1.0078250   1.0078250   1.0078250
 NucSpn=           0           0           0           0           0           0           1           1           1           1
 AtZEff=  -0.0000000  -0.0000000  -0.0000000  -0.0000000  -0.0000000  -0.0000000  -0.0000000  -0.0000000  -0.0000000  -0.0000000
 NQMom=    0.0000000   0.0000000   0.0000000   0.0000000   0.0000000   0.0000000   0.0000000   0.0000000   0.0000000   0.0000000
 NMagM=    0.0000000   0.0000000   0.0000000   0.0000000   0.0000000   0.0000000   2.7928460   2.7928460   2.7928460   2.7928460
 AtZNuc=   6.0000000   6.0000000   6.0000000   6.0000000   6.0000000   6.0000000   1.0000000   1.0000000   1.0000000   1.0000000

  Atom        11          12          13          14          15          16          17          18          19          20
 IAtWgt=           1           1           1           1           1           1          14          12          12          12
 AtmWgt=   1.0078250   1.0078250   1.0078250   1.0078250   1.0078250   1.0078250  14.0030740  12.0000000  12.0000000  12.0000000
 NucSpn=           1           1           1           1           1           1           2           0           0           0
 AtZEff=  -0.0000000  -0.0000000  -0.0000000  -0.0000000  -0.0000000  -0.0000000  -0.0000000  -0.0000000  -0.0000000  -0.0000000
 NQMom=    0.0000000   0.0000000   0.0000000   0.0000000   0.0000000   0.0000000   2.0440000   0.0000000   0.0000000   0.0000000
 NMagM=    2.7928460   2.7928460   2.7928460   2.7928460   2.7928460   2.7928460   0.4037610   0.0000000   0.0000000   0.0000000
 AtZNuc=   1.0000000   1.0000000   1.0000000   1.0000000   1.0000000   1.0000000   7.0000000   6.0000000   6.0000000   6.0000000

  Atom        21          22          23          24          25          26          27          28          29          30
 IAtWgt=           1          12           1          12           1           1          14          12           1           1
 AtmWgt=   1.0078250  12.0000000   1.0078250  12.0000000   1.0078250   1.0078250  14.0030740  12.0000000   1.0078250   1.0078250
 NucSpn=           1           0           1           0           1           1           2           0           1           1
 AtZEff=  -0.0000000  -0.0000000  -0.0000000  -0.0000000  -0.0000000  -0.0000000  -0.0000000  -0.0000000  -0.0000000  -0.0000000
 NQMom=    0.0000000   0.0000000   0.0000000   0.0000000   0.0000000   0.0000000   2.0440000   0.0000000   0.0000000   0.0000000
 NMagM=    2.7928460   0.0000000   2.7928460   0.0000000   2.7928460   2.7928460   0.4037610   0.0000000   2.7928460   2.7928460
 AtZNuc=   1.0000000   6.0000000   1.0000000   6.0000000   1.0000000   1.0000000   7.0000000   6.0000000   1.0000000   1.0000000

  Atom        31          32          33          34          35          36          37          38          39          40
 IAtWgt=          12           1           1          14          32          16          16          12          12          12
 AtmWgt=  12.0000000   1.0078250   1.0078250  14.0030740  31.9720718  15.9949146  15.9949146  12.0000000  12.0000000  12.0000000
 NucSpn=           0           1           1           2           0           0           0           0           0           0
 AtZEff=  -0.0000000  -0.0000000  -0.0000000  -0.0000000  -0.0000000  -0.0000000  -0.0000000  -0.0000000  -0.0000000  -0.0000000
 NQMom=    0.0000000   0.0000000   0.0000000   2.0440000   0.0000000   0.0000000   0.0000000   0.0000000   0.0000000   0.0000000
 NMagM=    0.0000000   2.7928460   2.7928460   0.4037610   0.0000000   0.0000000   0.0000000   0.0000000   0.0000000   0.0000000
 AtZNuc=   6.0000000   1.0000000   1.0000000   7.0000000  16.0000000   8.0000000   8.0000000   6.0000000   6.0000000   6.0000000

  Atom        41          42          43          44          45          46          47          48          49          50
 IAtWgt=          12          12          12           1           1           1           1           1          16           1
 AtmWgt=  12.0000000  12.0000000  12.0000000   1.0078250   1.0078250   1.0078250   1.0078250   1.0078250  15.9949146   1.0078250
 NucSpn=           0           0           0           1           1           1           1           1           0           1
 AtZEff=  -0.0000000  -0.0000000  -0.0000000  -0.0000000  -0.0000000  -0.0000000  -0.0000000  -0.0000000  -0.0000000  -0.0000000
 NQMom=    0.0000000   0.0000000   0.0000000   0.0000000   0.0000000   0.0000000   0.0000000   0.0000000   0.0000000   0.0000000
 NMagM=    0.0000000   0.0000000   0.0000000   2.7928460   2.7928460   2.7928460   2.7928460   2.7928460   0.0000000   2.7928460
 AtZNuc=   6.0000000   6.0000000   6.0000000   1.0000000   1.0000000   1.0000000   1.0000000   1.0000000   8.0000000   1.0000000

  Atom        51          52          53          54          55          56          57          58          59          60
 IAtWgt=          12          16          16           1          12           1           1          12           1           1
 AtmWgt=  12.0000000  15.9949146  15.9949146   1.0078250  12.0000000   1.0078250   1.0078250  12.0000000   1.0078250   1.0078250
 NucSpn=           0           0           0           1           0           1           1           0           1           1
 AtZEff=  -0.0000000  -0.0000000  -0.0000000  -0.0000000  -0.0000000  -0.0000000  -0.0000000  -0.0000000  -0.0000000  -0.0000000
 NQMom=    0.0000000   0.0000000   0.0000000   0.0000000   0.0000000   0.0000000   0.0000000   0.0000000   0.0000000   0.0000000
 NMagM=    0.0000000   0.0000000   0.0000000   2.7928460   0.0000000   2.7928460   2.7928460   0.0000000   2.7928460   2.7928460
 AtZNuc=   6.0000000   8.0000000   8.0000000   1.0000000   6.0000000   1.0000000   1.0000000   6.0000000   1.0000000   1.0000000

  Atom        61          62          63          64          65          66          67          68          69          70
 IAtWgt=          12           1           1           1          12           1           1          12           1           1
 AtmWgt=  12.0000000   1.0078250   1.0078250   1.0078250  12.0000000   1.0078250   1.0078250  12.0000000   1.0078250   1.0078250
 NucSpn=           0           1           1           1           0           1           1           0           1           1
 AtZEff=  -0.0000000  -0.0000000  -0.0000000  -0.0000000  -0.0000000  -0.0000000  -0.0000000  -0.0000000  -0.0000000  -0.0000000
 NQMom=    0.0000000   0.0000000   0.0000000   0.0000000   0.0000000   0.0000000   0.0000000   0.0000000   0.0000000   0.0000000
 NMagM=    0.0000000   2.7928460   2.7928460   2.7928460   0.0000000   2.7928460   2.7928460   0.0000000   2.7928460   2.7928460
 AtZNuc=   6.0000000   1.0000000   1.0000000   1.0000000   6.0000000   1.0000000   1.0000000   6.0000000   1.0000000   1.0000000

  Atom        71          72          73          74          75          76          77
 IAtWgt=           1          12           1           1          12           1           1
 AtmWgt=   1.0078250  12.0000000   1.0078250   1.0078250  12.0000000   1.0078250   1.0078250
 NucSpn=           1           0           1           1           0           1           1
 AtZEff=  -0.0000000  -0.0000000  -0.0000000  -0.0000000  -0.0000000  -0.0000000  -0.0000000
 NQMom=    0.0000000   0.0000000   0.0000000   0.0000000   0.0000000   0.0000000   0.0000000
 NMagM=    2.7928460   0.0000000   2.7928460   2.7928460   0.0000000   2.7928460   2.7928460
 AtZNuc=   1.0000000   6.0000000   1.0000000   1.0000000   6.0000000   1.0000000   1.0000000
 Leave Link  101 at Thu Feb  7 13:29:11 2019, MaxMem=   104857600 cpu:               5.1 elap:               0.2
 (Enter /home/xinyan/g16/l103.exe)

 GradGradGradGradGradGradGradGradGradGradGradGradGradGradGradGradGradGrad
 Berny optimization.
 Initialization pass.
 Trust Radius=3.00D-01 FncErr=1.00D-07 GrdErr=1.00D-07 EigMax=2.50D+02 EigMin=1.00D-04
 Number of steps in this run=      2 maximum allowed number of steps=      2.
 GradGradGradGradGradGradGradGradGradGradGradGradGradGradGradGradGradGrad

 Leave Link  103 at Thu Feb  7 13:29:11 2019, MaxMem=   104857600 cpu:               1.6 elap:               0.1
 (Enter /home/xinyan/g16/l202.exe)
 Stoichiometry    C27H41N3O5S
 Framework group  C1[X(C27H41N3O5S)]
 Deg. of freedom   225
 Full point group                 C1      NOp   1
 Largest Abelian subgroup         C1      NOp   1
 Largest concise Abelian subgroup C1      NOp   1
                         Standard orientation:                         
 ---------------------------------------------------------------------
 Center     Atomic      Atomic             Coordinates (Angstroms)
 Number     Number       Type             X           Y           Z
 ---------------------------------------------------------------------
      1          6           0       -4.801465    0.460951   -0.517768
      2          6           0       -5.007682   -0.845599   -1.290085
      3          6           0       -3.690239   -1.327101   -1.910040
      4          6           0       -2.666638   -1.518179   -0.796777
      5          6           0       -2.418662   -0.189838   -0.037605
      6          6           0       -3.732279    0.314208    0.569842
      7          1           0       -3.826870   -2.262604   -2.462904
      8          1           0       -5.391026   -1.618940   -0.611510
      9          1           0       -5.756505   -0.711135   -2.076936
     10          1           0       -4.492471    1.246645   -1.219818
     11          1           0       -5.746072    0.784279   -0.068463
     12          1           0       -3.040627   -2.261035   -0.085477
     13          1           0       -2.099896    0.548948   -0.784011
     14          1           0       -4.074796   -0.385082    1.339729
     15          1           0       -3.537686    1.280399    1.047720
     16          1           0       -3.344076   -0.564048   -2.620211
     17          7           0       -1.351233   -2.016827   -1.249763
     18          6           0       -0.670355   -1.349646   -2.219919
     19          6           0       -0.651905   -2.805530   -0.390892
     20          6           0        0.683914   -1.412567   -2.331086
     21          1           0       -1.265843   -0.730816   -2.879765
     22          6           0        0.704137   -2.906576   -0.429003
     23          1           0       -1.236981   -3.295543    0.379874
     24          6           0        1.443292   -2.108640   -1.343177
     25          1           0        1.170750   -0.852961   -3.118395
     26          1           0        1.193241   -3.494233    0.334761
     27          7           0        2.766543   -2.018049   -1.280496
     28          6           0        3.507014   -2.483986   -0.098298
     29          1           0        3.381590   -3.561915    0.035952
     30          1           0        3.126153   -1.939558    0.778276
     31          6           0        3.497237   -0.950371   -1.979331
     32          1           0        3.736311   -1.266975   -3.002065
     33          1           0        2.874261   -0.052016   -1.995092
     34          7           0       -1.294769   -0.274132    0.882694
     35         16           0       -1.332182   -1.103221    2.288852
     36          8           0       -2.553210   -1.914213    2.305002
     37          8           0       -0.052226   -1.793754    2.462602
     38          6           0       -0.562920    2.666676   -0.030376
     39          6           0       -0.090090    2.143018   -1.244047
     40          6           0       -0.865247    2.217523   -2.400050
     41          6           0       -2.129441    2.806679   -2.378060
     42          6           0       -2.611818    3.326224   -1.179770
     43          6           0       -1.830892    3.256001   -0.025789
     44          1           0        0.863266    1.625581   -1.247411
     45          1           0       -0.471117    1.816981   -3.331982
     46          1           0       -2.726992    2.866950   -3.283521
     47          1           0       -3.593127    3.791256   -1.141623
     48          1           0       -2.216493    3.674086    0.902072
     49          8           0        0.730753    1.540667    1.841778
     50          1           0       -0.322891   -0.039608    0.559518
     51          6           0        1.892150    0.813655    1.227964
     52          8           0        1.514763    0.200590    0.128754
     53          8           0        2.256209   -0.062331    2.279704
     54          1           0        1.560898   -0.744827    2.289884
     55          6           0        3.083362    1.800415    1.131724
     56          1           0        3.008214    2.517485    1.960046
     57          1           0        3.986075    1.211004    1.336770
     58          6           0        0.264535    2.725102    1.258420
     59          1           0       -0.378372    3.188417    2.018625
     60          1           0        1.095308    3.428840    1.098599
     61          6           0       -1.430495    0.130104    3.564947
     62          1           0       -0.546606    0.762458    3.443071
     63          1           0       -2.352376    0.696207    3.420694
     64          1           0       -1.436240   -0.387733    4.525509
     65          6           0        3.270223    2.538065   -0.191376
     66          1           0        3.423005    1.808878   -0.995579
     67          1           0        2.368610    3.093255   -0.469913
     68          6           0        4.453073    3.503288   -0.129027
     69          1           0        4.611834    4.017759   -1.081759
     70          1           0        4.288213    4.265924    0.640471
     71          1           0        5.377708    2.974364    0.129378
     72          6           0        4.942833   -2.086562   -0.420263
     73          1           0        5.557255   -2.014051    0.478841
     74          1           0        5.396524   -2.819775   -1.096382
     75          6           0        4.750523   -0.741904   -1.124388
     76          1           0        4.533801    0.024725   -0.375789
     77          1           0        5.611870   -0.427128   -1.717214
 ---------------------------------------------------------------------
 Rotational constants (GHZ):           0.1539239           0.1008417           0.0907299
 Leave Link  202 at Thu Feb  7 13:29:11 2019, MaxMem=   104857600 cpu:               2.4 elap:               0.1
 (Enter /home/xinyan/g16/l301.exe)
 Standard basis: 6-31G(d) (6D, 7F)
 Ernie: Thresh=  0.10000D-02 Tol=  0.10000D-05 Strict=F.
 There are   626 symmetry adapted cartesian basis functions of A   symmetry.
 There are   626 symmetry adapted basis functions of A   symmetry.
   626 basis functions,  1196 primitive gaussians,   626 cartesian basis functions
   140 alpha electrons      140 beta electrons
       nuclear repulsion energy      4988.5882047684 Hartrees.
 IExCor= 4336 DFT=T Ex+Corr=M062X ExCW=0 ScaHFX=  0.540000
 ScaDFX=  1.000000  1.000000  1.000000  1.000000 ScalE2=  1.000000  1.000000
 IRadAn=      5 IRanWt=     -1 IRanGd=            0 ICorTp=0 IEmpDi=131
 NAtoms=   77 NActive=   77 NUniq=   77 SFac= 1.00D+00 NAtFMM=   60 NAOKFM=T Big=T
 Integral buffers will be    131072 words long.
 Raffenetti 2 integral format.
 Two-electron integral symmetry is turned on.
 R6Disp:  Grimme-D3 Dispersion energy=       -0.0108183936 Hartrees.
 Nuclear repulsion after empirical dispersion term =     4988.5773863747 Hartrees.
 Leave Link  301 at Thu Feb  7 13:29:11 2019, MaxMem=   104857600 cpu:               3.0 elap:               0.2
 (Enter /home/xinyan/g16/l302.exe)
 NPDir=0 NMtPBC=     1 NCelOv=     1 NCel=       1 NClECP=     1 NCelD=      1
         NCelK=      1 NCelE2=     1 NClLst=     1 CellRange=     0.0.
 One-electron integrals computed using PRISM.
 One-electron integral symmetry used in STVInt
 PrsmSu:  requested number of processors reduced to:  23 ShMem   1 Linda.
 NBasis=   626 RedAO= T EigKep=  4.42D-04  NBF=   626
 NBsUse=   626 1.00D-06 EigRej= -1.00D+00 NBFU=   626
 Precomputing XC quadrature grid using
 IXCGrd= 4 IRadAn=           5 IRanWt=          -1 IRanGd=           0 AccXCQ= 0.00D+00.
 Generated NRdTot=       0 NPtTot=           0 NUsed=           0 NTot=          32
 NSgBfM=   621   621   621   621   621 MxSgAt=    77 MxSgA2=    77.
 Leave Link  302 at Thu Feb  7 13:29:15 2019, MaxMem=   104857600 cpu:              82.4 elap:               3.6
 (Enter /home/xinyan/g16/l303.exe)
 DipDrv:  MaxL=1.
 Leave Link  303 at Thu Feb  7 13:29:15 2019, MaxMem=   104857600 cpu:               6.3 elap:               0.3
 (Enter /home/xinyan/g16/l401.exe)
 ExpMin= 1.17D-01 ExpMax= 2.19D+04 ExpMxC= 3.30D+03 IAcc=3 IRadAn=         5 AccDes= 0.00D+00
 Harris functional with IExCor= 1009 and IRadAn=       5 diagonalized for initial guess.
 HarFok:  IExCor= 1009 AccDes= 0.00D+00 IRadAn=         5 IDoV= 1 UseB2=F ITyADJ=14
 ICtDFT=  3500011 ScaDFX=  1.000000  1.000000  1.000000  1.000000
 FoFCou: FMM=F IPFlag=           0 FMFlag=      100000 FMFlg1=        2001
         NFxFlg=           0 DoJE=T BraDBF=F KetDBF=T FulRan=T
         wScrn=  0.000000 ICntrl=       500 IOpCl=  0 I1Cent=   200000004 NGrid=           0
         NMat0=    1 NMatS0=      1 NMatT0=    0 NMatD0=    1 NMtDS0=    0 NMtDT0=    0
 Petite list used in FoFCou.
 Harris En= -1990.53008926620    
 JPrj=0 DoOrth=F DoCkMO=F.
 Leave Link  401 at Thu Feb  7 13:29:19 2019, MaxMem=   104857600 cpu:              99.6 elap:               4.2
 (Enter /home/xinyan/g16/l502.exe)
 Integral symmetry usage will be decided dynamically.
 Closed shell SCF:
 Using DIIS extrapolation, IDIIS=  1040.
 NGot=   104857600 LenX=   104051656 LenY=   103659154
 Requested convergence on RMS density matrix=1.00D-08 within 128 cycles.
 Requested convergence on MAX density matrix=1.00D-06.
 Requested convergence on             energy=1.00D-06.
 No special actions if energy rises.
 Fock matrices will be formed incrementally for  20 cycles.
 Integral accuracy reduced to 1.0D-05 until final iterations.

 Cycle   1  Pass 0  IDiag  1:
 FoFJK:  IHMeth= 1 ICntrl=       0 DoSepK=F KAlg= 0 I1Cent=           0 FoldK=F
 IRaf= 990000000 NMat=       1 IRICut=       1 DoRegI=T DoRafI=F ISym2E= 0 IDoP0=0 IntGTp=1.
 FoFCou: FMM=T IPFlag=           0 FMFlag=      100000 FMFlg1=        2001
         NFxFlg=           0 DoJE=F BraDBF=F KetDBF=F FulRan=T
         wScrn=  0.000000 ICntrl=         0 IOpCl=  0 I1Cent=           0 NGrid=           0
         NMat0=    1 NMatS0=      1 NMatT0=    0 NMatD0=    1 NMtDS0=    0 NMtDT0=    0
 Symmetry not used in FoFCou.
 FMM levels:  10  Number of levels for PrismC:   9
 E= -1990.29682577926    
 DIIS: error= 2.38D-02 at cycle   1 NSaved=   1.
 NSaved= 1 IEnMin= 1 EnMin= -1990.29682577926     IErMin= 1 ErrMin= 2.38D-02
 ErrMax= 2.38D-02  0.00D+00 EMaxC= 1.00D-01 BMatC= 1.25D+00 BMatP= 1.25D+00
 IDIUse=3 WtCom= 7.62D-01 WtEn= 2.38D-01
 Coeff-Com:  0.100D+01
 Coeff-En:   0.100D+01
 Coeff:      0.100D+01
 Gap=     0.367 Goal=   None    Shift=    0.000
 GapD=    0.367 DampG=1.000 DampE=0.500 DampFc=0.5000 IDamp=-1.
 Damping current iteration by 5.00D-01
 RMSDP=3.45D-03 MaxDP=3.47D-01              OVMax= 1.99D-01

 Cycle   2  Pass 0  IDiag  1:
 RMSU=  1.72D-03    CP:  9.88D-01
 E= -1990.81001419321     Delta-E=       -0.513188413951 Rises=F Damp=T
 DIIS: error= 6.90D-03 at cycle   2 NSaved=   2.
 NSaved= 2 IEnMin= 2 EnMin= -1990.81001419321     IErMin= 2 ErrMin= 6.90D-03
 ErrMax= 6.90D-03  0.00D+00 EMaxC= 1.00D-01 BMatC= 9.31D-02 BMatP= 1.25D+00
 IDIUse=3 WtCom= 9.31D-01 WtEn= 6.90D-02
 Coeff-Com: -0.276D-01 0.103D+01
 Coeff-En:   0.000D+00 0.100D+01
 Coeff:     -0.257D-01 0.103D+01
 Gap=     0.261 Goal=   None    Shift=    0.000
 RMSDP=8.60D-04 MaxDP=7.78D-02 DE=-5.13D-01 OVMax= 1.15D-01

 Cycle   3  Pass 0  IDiag  1:
 RMSU=  8.49D-04    CP:  9.81D-01  9.42D-01
 E= -1991.31632184283     Delta-E=       -0.506307649614 Rises=F Damp=F
 DIIS: error= 7.03D-03 at cycle   3 NSaved=   3.
 NSaved= 3 IEnMin= 3 EnMin= -1991.31632184283     IErMin= 2 ErrMin= 6.90D-03
 ErrMax= 7.03D-03  0.00D+00 EMaxC= 1.00D-01 BMatC= 5.02D-02 BMatP= 9.31D-02
 IDIUse=3 WtCom= 9.30D-01 WtEn= 7.03D-02
 Coeff-Com: -0.710D-01 0.442D+00 0.629D+00
 Coeff-En:   0.000D+00 0.000D+00 0.100D+01
 Coeff:     -0.660D-01 0.411D+00 0.655D+00
 Gap=     0.243 Goal=   None    Shift=    0.000
 RMSDP=5.15D-04 MaxDP=3.67D-02 DE=-5.06D-01 OVMax= 6.10D-02

 Cycle   4  Pass 0  IDiag  1:
 RMSU=  3.39D-04    CP:  9.84D-01  1.05D+00  6.01D-01
 E= -1991.34710476236     Delta-E=       -0.030782919536 Rises=F Damp=F
 DIIS: error= 3.93D-03 at cycle   4 NSaved=   4.
 NSaved= 4 IEnMin= 4 EnMin= -1991.34710476236     IErMin= 4 ErrMin= 3.93D-03
 ErrMax= 3.93D-03  0.00D+00 EMaxC= 1.00D-01 BMatC= 1.23D-02 BMatP= 5.02D-02
 IDIUse=3 WtCom= 9.61D-01 WtEn= 3.93D-02
 Coeff-Com: -0.283D-01 0.912D-01 0.359D+00 0.578D+00
 Coeff-En:   0.000D+00 0.000D+00 0.208D+00 0.792D+00
 Coeff:     -0.271D-01 0.876D-01 0.353D+00 0.587D+00
 Gap=     0.227 Goal=   None    Shift=    0.000
 RMSDP=2.07D-04 MaxDP=1.40D-02 DE=-3.08D-02 OVMax= 2.81D-02

 Cycle   5  Pass 0  IDiag  1:
 RMSU=  8.62D-05    CP:  9.84D-01  1.03D+00  7.32D-01  5.62D-01
 E= -1991.35731661615     Delta-E=       -0.010211853782 Rises=F Damp=F
 DIIS: error= 1.00D-03 at cycle   5 NSaved=   5.
 NSaved= 5 IEnMin= 5 EnMin= -1991.35731661615     IErMin= 5 ErrMin= 1.00D-03
 ErrMax= 1.00D-03  0.00D+00 EMaxC= 1.00D-01 BMatC= 5.86D-04 BMatP= 1.23D-02
 IDIUse=3 WtCom= 9.90D-01 WtEn= 1.00D-02
 Coeff-Com: -0.927D-02 0.213D-01 0.134D+00 0.285D+00 0.568D+00
 Coeff-En:   0.000D+00 0.000D+00 0.000D+00 0.000D+00 0.100D+01
 Coeff:     -0.918D-02 0.211D-01 0.133D+00 0.282D+00 0.573D+00
 Gap=     0.227 Goal=   None    Shift=    0.000
 RMSDP=5.09D-05 MaxDP=3.75D-03 DE=-1.02D-02 OVMax= 8.87D-03

 Cycle   6  Pass 0  IDiag  1:
 RMSU=  2.73D-05    CP:  9.83D-01  1.04D+00  7.30D-01  6.34D-01  5.93D-01
 E= -1991.35782587343     Delta-E=       -0.000509257281 Rises=F Damp=F
 DIIS: error= 3.28D-04 at cycle   6 NSaved=   6.
 NSaved= 6 IEnMin= 6 EnMin= -1991.35782587343     IErMin= 6 ErrMin= 3.28D-04
 ErrMax= 3.28D-04  0.00D+00 EMaxC= 1.00D-01 BMatC= 5.89D-05 BMatP= 5.86D-04
 IDIUse=3 WtCom= 9.97D-01 WtEn= 3.28D-03
 Coeff-Com: -0.179D-02 0.181D-02 0.302D-01 0.822D-01 0.293D+00 0.594D+00
 Coeff-En:   0.000D+00 0.000D+00 0.000D+00 0.000D+00 0.325D-02 0.997D+00
 Coeff:     -0.179D-02 0.181D-02 0.301D-01 0.820D-01 0.293D+00 0.595D+00
 Gap=     0.228 Goal=   None    Shift=    0.000
 RMSDP=1.50D-05 MaxDP=8.83D-04 DE=-5.09D-04 OVMax= 2.38D-03

 Cycle   7  Pass 0  IDiag  1:
 RMSU=  9.38D-06    CP:  9.83D-01  1.03D+00  7.33D-01  6.34D-01  6.77D-01
                    CP:  6.77D-01
 E= -1991.35788141937     Delta-E=       -0.000055545945 Rises=F Damp=F
 DIIS: error= 5.23D-05 at cycle   7 NSaved=   7.
 NSaved= 7 IEnMin= 7 EnMin= -1991.35788141937     IErMin= 7 ErrMin= 5.23D-05
 ErrMax= 5.23D-05  0.00D+00 EMaxC= 1.00D-01 BMatC= 3.88D-06 BMatP= 5.89D-05
 IDIUse=1 WtCom= 1.00D+00 WtEn= 0.00D+00
 Coeff-Com:  0.174D-03-0.135D-02-0.131D-02 0.581D-02 0.717D-01 0.255D+00
 Coeff-Com:  0.670D+00
 Coeff:      0.174D-03-0.135D-02-0.131D-02 0.581D-02 0.717D-01 0.255D+00
 Coeff:      0.670D+00
 Gap=     0.227 Goal=   None    Shift=    0.000
 RMSDP=4.44D-06 MaxDP=2.39D-04 DE=-5.55D-05 OVMax= 5.19D-04

 Initial convergence to 1.0D-05 achieved.  Increase integral accuracy.
 Cycle   8  Pass 1  IDiag  1:
 E= -1991.35788981655     Delta-E=       -0.000008397181 Rises=F Damp=F
 DIIS: error= 1.98D-04 at cycle   1 NSaved=   1.
 NSaved= 1 IEnMin= 1 EnMin= -1991.35788981655     IErMin= 1 ErrMin= 1.98D-04
 ErrMax= 1.98D-04  0.00D+00 EMaxC= 1.00D-01 BMatC= 1.33D-05 BMatP= 1.33D-05
 IDIUse=3 WtCom= 9.98D-01 WtEn= 1.98D-03
 Coeff-Com:  0.100D+01
 Coeff-En:   0.100D+01
 Coeff:      0.100D+01
 Gap=     0.227 Goal=   None    Shift=    0.000
 RMSDP=4.44D-06 MaxDP=2.39D-04 DE=-8.40D-06 OVMax= 4.77D-04

 Cycle   9  Pass 1  IDiag  1:
 RMSU=  7.28D-05    CP:  1.00D+00
 E= -1991.35790172132     Delta-E=       -0.000011904770 Rises=F Damp=F
 DIIS: error= 2.18D-05 at cycle   2 NSaved=   2.
 NSaved= 2 IEnMin= 2 EnMin= -1991.35790172132     IErMin= 2 ErrMin= 2.18D-05
 ErrMax= 2.18D-05  0.00D+00 EMaxC= 1.00D-01 BMatC= 7.65D-07 BMatP= 1.33D-05
 IDIUse=1 WtCom= 1.00D+00 WtEn= 0.00D+00
 Coeff-Com:  0.670D-01 0.933D+00
 Coeff:      0.670D-01 0.933D+00
 Gap=     0.227 Goal=   None    Shift=    0.000
 RMSDP=3.82D-06 MaxDP=2.07D-04 DE=-1.19D-05 OVMax= 3.60D-04

 Cycle  10  Pass 1  IDiag  1:
 RMSU=  3.21D-06    CP:  1.00D+00  1.03D+00
 E= -1991.35790137985     Delta-E=        0.000000341473 Rises=F Damp=F
 DIIS: error= 3.61D-05 at cycle   3 NSaved=   3.
 NSaved= 3 IEnMin= 2 EnMin= -1991.35790172132     IErMin= 2 ErrMin= 2.18D-05
 ErrMax= 3.61D-05  0.00D+00 EMaxC= 1.00D-01 BMatC= 1.20D-06 BMatP= 7.65D-07
 IDIUse=1 WtCom= 1.00D+00 WtEn= 0.00D+00
 Coeff-Com: -0.145D-01 0.562D+00 0.453D+00
 Coeff:     -0.145D-01 0.562D+00 0.453D+00
 Gap=     0.227 Goal=   None    Shift=    0.000
 RMSDP=1.80D-06 MaxDP=1.24D-04 DE= 3.41D-07 OVMax= 2.28D-04

 Cycle  11  Pass 1  IDiag  1:
 RMSU=  6.26D-07    CP:  1.00D+00  1.03D+00  4.81D-01
 E= -1991.35790239041     Delta-E=       -0.000001010565 Rises=F Damp=F
 DIIS: error= 4.20D-06 at cycle   4 NSaved=   4.
 NSaved= 4 IEnMin= 4 EnMin= -1991.35790239041     IErMin= 4 ErrMin= 4.20D-06
 ErrMax= 4.20D-06  0.00D+00 EMaxC= 1.00D-01 BMatC= 1.17D-08 BMatP= 7.65D-07
 IDIUse=1 WtCom= 1.00D+00 WtEn= 0.00D+00
 Coeff-Com: -0.813D-02 0.259D+00 0.220D+00 0.529D+00
 Coeff:     -0.813D-02 0.259D+00 0.220D+00 0.529D+00
 Gap=     0.227 Goal=   None    Shift=    0.000
 RMSDP=2.22D-07 MaxDP=1.25D-05 DE=-1.01D-06 OVMax= 3.59D-05

 Cycle  12  Pass 1  IDiag  1:
 RMSU=  1.95D-07    CP:  1.00D+00  1.03D+00  5.00D-01  8.65D-01
 E= -1991.35790240128     Delta-E=       -0.000000010866 Rises=F Damp=F
 DIIS: error= 1.46D-06 at cycle   5 NSaved=   5.
 NSaved= 5 IEnMin= 5 EnMin= -1991.35790240128     IErMin= 5 ErrMin= 1.46D-06
 ErrMax= 1.46D-06  0.00D+00 EMaxC= 1.00D-01 BMatC= 9.32D-10 BMatP= 1.17D-08
 IDIUse=1 WtCom= 1.00D+00 WtEn= 0.00D+00
 Coeff-Com: -0.107D-02 0.200D-01 0.188D-01 0.211D+00 0.751D+00
 Coeff:     -0.107D-02 0.200D-01 0.188D-01 0.211D+00 0.751D+00
 Gap=     0.227 Goal=   None    Shift=    0.000
 RMSDP=8.33D-08 MaxDP=4.81D-06 DE=-1.09D-08 OVMax= 1.02D-05

 Cycle  13  Pass 1  IDiag  1:
 RMSU=  6.31D-08    CP:  1.00D+00  1.03D+00  5.01D-01  9.39D-01  8.72D-01
 E= -1991.35790240211     Delta-E=       -0.000000000828 Rises=F Damp=F
 DIIS: error= 4.61D-07 at cycle   6 NSaved=   6.
 NSaved= 6 IEnMin= 6 EnMin= -1991.35790240211     IErMin= 6 ErrMin= 4.61D-07
 ErrMax= 4.61D-07  0.00D+00 EMaxC= 1.00D-01 BMatC= 2.34D-10 BMatP= 9.32D-10
 IDIUse=1 WtCom= 1.00D+00 WtEn= 0.00D+00
 Coeff-Com:  0.734D-03-0.309D-01-0.257D-01 0.364D-01 0.409D+00 0.610D+00
 Coeff:      0.734D-03-0.309D-01-0.257D-01 0.364D-01 0.409D+00 0.610D+00
 Gap=     0.227 Goal=   None    Shift=    0.000
 RMSDP=3.49D-08 MaxDP=1.77D-06 DE=-8.28D-10 OVMax= 4.90D-06

 Cycle  14  Pass 1  IDiag  1:
 RMSU=  2.47D-08    CP:  1.00D+00  1.03D+00  5.01D-01  9.58D-01  9.53D-01
                    CP:  7.79D-01
 E= -1991.35790240243     Delta-E=       -0.000000000318 Rises=F Damp=F
 DIIS: error= 1.38D-07 at cycle   7 NSaved=   7.
 NSaved= 7 IEnMin= 7 EnMin= -1991.35790240243     IErMin= 7 ErrMin= 1.38D-07
 ErrMax= 1.38D-07  0.00D+00 EMaxC= 1.00D-01 BMatC= 1.56D-11 BMatP= 2.34D-10
 IDIUse=1 WtCom= 1.00D+00 WtEn= 0.00D+00
 Coeff-Com:  0.403D-03-0.150D-01-0.128D-01 0.930D-03 0.116D+00 0.271D+00
 Coeff-Com:  0.639D+00
 Coeff:      0.403D-03-0.150D-01-0.128D-01 0.930D-03 0.116D+00 0.271D+00
 Coeff:      0.639D+00
 Gap=     0.227 Goal=   None    Shift=    0.000
 RMSDP=9.22D-09 MaxDP=5.37D-07 DE=-3.18D-10 OVMax= 1.52D-06

 SCF Done:  E(RM062X) =  -1991.35790240     A.U. after   14 cycles
            NFock= 14  Conv=0.92D-08     -V/T= 2.0076
 KE= 1.976415774660D+03 PE=-1.462944493469D+04 EE= 5.673093871256D+03
 Leave Link  502 at Thu Feb  7 13:31:51 2019, MaxMem=   104857600 cpu:            3632.8 elap:             151.7
 (Enter /home/xinyan/g16/l601.exe)
 Copying SCF densities to generalized density rwf, IOpCl= 0 IROHF=0.

 **********************************************************************

            Population analysis using the SCF density.

 **********************************************************************

 Orbital symmetries:
       Occupied  (A) (A) (A) (A) (A) (A) (A) (A) (A) (A) (A) (A)
                 (A) (A) (A) (A) (A) (A) (A) (A) (A) (A) (A) (A)
                 (A) (A) (A) (A) (A) (A) (A) (A) (A) (A) (A) (A)
                 (A) (A) (A) (A) (A) (A) (A) (A) (A) (A) (A) (A)
                 (A) (A) (A) (A) (A) (A) (A) (A) (A) (A) (A) (A)
                 (A) (A) (A) (A) (A) (A) (A) (A) (A) (A) (A) (A)
                 (A) (A) (A) (A) (A) (A) (A) (A) (A) (A) (A) (A)
                 (A) (A) (A) (A) (A) (A) (A) (A) (A) (A) (A) (A)
                 (A) (A) (A) (A) (A) (A) (A) (A) (A) (A) (A) (A)
                 (A) (A) (A) (A) (A) (A) (A) (A) (A) (A) (A) (A)
                 (A) (A) (A) (A) (A) (A) (A) (A) (A) (A) (A) (A)
                 (A) (A) (A) (A) (A) (A) (A) (A)
       Virtual   (A) (A) (A) (A) (A) (A) (A) (A) (A) (A) (A) (A)
                 (A) (A) (A) (A) (A) (A) (A) (A) (A) (A) (A) (A)
                 (A) (A) (A) (A) (A) (A) (A) (A) (A) (A) (A) (A)
                 (A) (A) (A) (A) (A) (A) (A) (A) (A) (A) (A) (A)
                 (A) (A) (A) (A) (A) (A) (A) (A) (A) (A) (A) (A)
                 (A) (A) (A) (A) (A) (A) (A) (A) (A) (A) (A) (A)
                 (A) (A) (A) (A) (A) (A) (A) (A) (A) (A) (A) (A)
                 (A) (A) (A) (A) (A) (A) (A) (A) (A) (A) (A) (A)
                 (A) (A) (A) (A) (A) (A) (A) (A) (A) (A) (A) (A)
                 (A) (A) (A) (A) (A) (A) (A) (A) (A) (A) (A) (A)
                 (A) (A) (A) (A) (A) (A) (A) (A) (A) (A) (A) (A)
                 (A) (A) (A) (A) (A) (A) (A) (A) (A) (A) (A) (A)
                 (A) (A) (A) (A) (A) (A) (A) (A) (A) (A) (A) (A)
                 (A) (A) (A) (A) (A) (A) (A) (A) (A) (A) (A) (A)
                 (A) (A) (A) (A) (A) (A) (A) (A) (A) (A) (A) (A)
                 (A) (A) (A) (A) (A) (A) (A) (A) (A) (A) (A) (A)
                 (A) (A) (A) (A) (A) (A) (A) (A) (A) (A) (A) (A)
                 (A) (A) (A) (A) (A) (A) (A) (A) (A) (A) (A) (A)
                 (A) (A) (A) (A) (A) (A) (A) (A) (A) (A) (A) (A)
                 (A) (A) (A) (A) (A) (A) (A) (A) (A) (A) (A) (A)
                 (A) (A) (A) (A) (A) (A) (A) (A) (A) (A) (A) (A)
                 (A) (A) (A) (A) (A) (A) (A) (A) (A) (A) (A) (A)
                 (A) (A) (A) (A) (A) (A) (A) (A) (A) (A) (A) (A)
                 (A) (A) (A) (A) (A) (A) (A) (A) (A) (A) (A) (A)
                 (A) (A) (A) (A) (A) (A) (A) (A) (A) (A) (A) (A)
                 (A) (A) (A) (A) (A) (A) (A) (A) (A) (A) (A) (A)
                 (A) (A) (A) (A) (A) (A) (A) (A) (A) (A) (A) (A)
                 (A) (A) (A) (A) (A) (A) (A) (A) (A) (A) (A) (A)
                 (A) (A) (A) (A) (A) (A) (A) (A) (A) (A) (A) (A)
                 (A) (A) (A) (A) (A) (A) (A) (A) (A) (A) (A) (A)
                 (A) (A) (A) (A) (A) (A) (A) (A) (A) (A) (A) (A)
                 (A) (A) (A) (A) (A) (A) (A) (A) (A) (A) (A) (A)
                 (A) (A) (A) (A) (A) (A) (A) (A) (A) (A) (A) (A)
                 (A) (A) (A) (A) (A) (A) (A) (A) (A) (A) (A) (A)
                 (A) (A) (A) (A) (A) (A) (A) (A) (A) (A) (A) (A)
                 (A) (A) (A) (A) (A) (A) (A) (A) (A) (A) (A) (A)
                 (A) (A) (A) (A) (A) (A) (A) (A) (A) (A) (A) (A)
                 (A) (A) (A) (A) (A) (A) (A) (A) (A) (A) (A) (A)
                 (A) (A) (A) (A) (A) (A) (A) (A) (A) (A) (A) (A)
                 (A) (A) (A) (A) (A) (A) (A) (A) (A) (A) (A) (A)
                 (A) (A) (A) (A) (A) (A)
 The electronic state is 1-A.
 Alpha  occ. eigenvalues --  -90.14323 -19.61912 -19.61874 -19.58601 -19.56657
 Alpha  occ. eigenvalues --  -19.51054 -14.85223 -14.80408 -14.76078 -10.63410
 Alpha  occ. eigenvalues --  -10.62788 -10.62248 -10.62138 -10.60817 -10.59481
 Alpha  occ. eigenvalues --  -10.58321 -10.57997 -10.57964 -10.57186 -10.56901
 Alpha  occ. eigenvalues --  -10.56744 -10.55713 -10.55673 -10.55069 -10.54869
 Alpha  occ. eigenvalues --  -10.54867 -10.54756 -10.54721 -10.54605 -10.54421
 Alpha  occ. eigenvalues --  -10.54400 -10.54345 -10.53033 -10.51399 -10.51359
 Alpha  occ. eigenvalues --  -10.49598  -8.45299  -6.37518  -6.37491  -6.37334
 Alpha  occ. eigenvalues --   -1.22139  -1.13611  -1.13388  -1.10392  -1.09312
 Alpha  occ. eigenvalues --   -1.05811  -1.01911  -0.99234  -0.95800  -0.95006
 Alpha  occ. eigenvalues --   -0.93532  -0.90322  -0.88762  -0.86021  -0.85669
 Alpha  occ. eigenvalues --   -0.84833  -0.84749  -0.84169  -0.83067  -0.82782
 Alpha  occ. eigenvalues --   -0.76689  -0.76178  -0.75816  -0.74309  -0.72890
 Alpha  occ. eigenvalues --   -0.71710  -0.68322  -0.68192  -0.67936  -0.67285
 Alpha  occ. eigenvalues --   -0.66708  -0.65270  -0.64858  -0.63533  -0.60526
 Alpha  occ. eigenvalues --   -0.60401  -0.59749  -0.59208  -0.57791  -0.57643
 Alpha  occ. eigenvalues --   -0.57228  -0.56459  -0.55811  -0.55158  -0.54224
 Alpha  occ. eigenvalues --   -0.53590  -0.52707  -0.52528  -0.52499  -0.51921
 Alpha  occ. eigenvalues --   -0.51566  -0.50976  -0.50614  -0.49906  -0.49482
 Alpha  occ. eigenvalues --   -0.49160  -0.48886  -0.48213  -0.48132  -0.47946
 Alpha  occ. eigenvalues --   -0.47721  -0.47500  -0.46959  -0.46382  -0.46091
 Alpha  occ. eigenvalues --   -0.44926  -0.44737  -0.44196  -0.43838  -0.43273
 Alpha  occ. eigenvalues --   -0.42563  -0.42169  -0.41342  -0.41251  -0.41051
 Alpha  occ. eigenvalues --   -0.40895  -0.40528  -0.39989  -0.39769  -0.39247
 Alpha  occ. eigenvalues --   -0.39233  -0.39095  -0.38417  -0.38051  -0.37657
 Alpha  occ. eigenvalues --   -0.37369  -0.36738  -0.36514  -0.35826  -0.34929
 Alpha  occ. eigenvalues --   -0.34401  -0.34033  -0.31688  -0.31184  -0.29788
 Alpha  occ. eigenvalues --   -0.28869  -0.28607  -0.27688  -0.24636  -0.24258
 Alpha virt. eigenvalues --   -0.01517   0.00382   0.03519   0.03728   0.10121
 Alpha virt. eigenvalues --    0.10896   0.11600   0.12277   0.13144   0.13438
 Alpha virt. eigenvalues --    0.14225   0.14471   0.14750   0.15236   0.15595
 Alpha virt. eigenvalues --    0.16065   0.16769   0.16929   0.17165   0.17729
 Alpha virt. eigenvalues --    0.18030   0.18304   0.18416   0.18763   0.18979
 Alpha virt. eigenvalues --    0.19265   0.19713   0.19991   0.20108   0.20245
 Alpha virt. eigenvalues --    0.20641   0.20925   0.21116   0.21486   0.21598
 Alpha virt. eigenvalues --    0.22081   0.22528   0.22817   0.23244   0.23734
 Alpha virt. eigenvalues --    0.23877   0.24216   0.24607   0.24696   0.24832
 Alpha virt. eigenvalues --    0.25269   0.25447   0.25882   0.26283   0.26798
 Alpha virt. eigenvalues --    0.27084   0.27758   0.27869   0.28523   0.28943
 Alpha virt. eigenvalues --    0.29256   0.29365   0.29697   0.30747   0.30888
 Alpha virt. eigenvalues --    0.31255   0.31562   0.31979   0.32453   0.33067
 Alpha virt. eigenvalues --    0.33584   0.34494   0.35333   0.35471   0.35830
 Alpha virt. eigenvalues --    0.36522   0.37449   0.37616   0.37955   0.38829
 Alpha virt. eigenvalues --    0.39930   0.40466   0.40693   0.42812   0.43181
 Alpha virt. eigenvalues --    0.44340   0.44659   0.47143   0.48001   0.48833
 Alpha virt. eigenvalues --    0.49687   0.51114   0.52674   0.53398   0.54905
 Alpha virt. eigenvalues --    0.55152   0.55351   0.56063   0.56655   0.56956
 Alpha virt. eigenvalues --    0.57472   0.58224   0.58575   0.59006   0.59506
 Alpha virt. eigenvalues --    0.59646   0.59850   0.60400   0.60498   0.60630
 Alpha virt. eigenvalues --    0.61113   0.61453   0.62368   0.62564   0.62874
 Alpha virt. eigenvalues --    0.63695   0.64006   0.64487   0.64902   0.65633
 Alpha virt. eigenvalues --    0.66017   0.66478   0.66969   0.67491   0.67918
 Alpha virt. eigenvalues --    0.68297   0.68976   0.69102   0.70002   0.70658
 Alpha virt. eigenvalues --    0.70977   0.71435   0.71782   0.72895   0.73416
 Alpha virt. eigenvalues --    0.73672   0.74304   0.74757   0.74876   0.75791
 Alpha virt. eigenvalues --    0.76551   0.77278   0.77838   0.78644   0.79083
 Alpha virt. eigenvalues --    0.79446   0.79957   0.80214   0.80803   0.81140
 Alpha virt. eigenvalues --    0.81797   0.82115   0.82780   0.84011   0.84688
 Alpha virt. eigenvalues --    0.84809   0.85373   0.85701   0.86020   0.86959
 Alpha virt. eigenvalues --    0.87788   0.88413   0.88986   0.89411   0.89561
 Alpha virt. eigenvalues --    0.89768   0.90104   0.90612   0.91140   0.91263
 Alpha virt. eigenvalues --    0.91588   0.92190   0.92752   0.92932   0.93248
 Alpha virt. eigenvalues --    0.93601   0.94112   0.94647   0.95006   0.95291
 Alpha virt. eigenvalues --    0.95764   0.96088   0.96680   0.96819   0.96997
 Alpha virt. eigenvalues --    0.97226   0.97823   0.98085   0.98366   0.98478
 Alpha virt. eigenvalues --    0.99167   0.99491   0.99791   1.00412   1.00909
 Alpha virt. eigenvalues --    1.01281   1.01835   1.02317   1.02670   1.03055
 Alpha virt. eigenvalues --    1.03180   1.04208   1.04422   1.04573   1.05813
 Alpha virt. eigenvalues --    1.06012   1.06966   1.07810   1.08269   1.09142
 Alpha virt. eigenvalues --    1.10209   1.10760   1.11464   1.11596   1.11902
 Alpha virt. eigenvalues --    1.13332   1.13562   1.14803   1.14949   1.15693
 Alpha virt. eigenvalues --    1.16697   1.17665   1.18315   1.18667   1.18980
 Alpha virt. eigenvalues --    1.19911   1.20518   1.20925   1.21639   1.21987
 Alpha virt. eigenvalues --    1.22165   1.23687   1.24102   1.25166   1.25496
 Alpha virt. eigenvalues --    1.26096   1.27422   1.28580   1.29332   1.30258
 Alpha virt. eigenvalues --    1.31221   1.31514   1.32098   1.32898   1.33507
 Alpha virt. eigenvalues --    1.33829   1.34504   1.35256   1.36265   1.37047
 Alpha virt. eigenvalues --    1.37097   1.38415   1.38927   1.40406   1.41202
 Alpha virt. eigenvalues --    1.41837   1.42492   1.43551   1.44464   1.46398
 Alpha virt. eigenvalues --    1.47303   1.47931   1.48385   1.49183   1.49904
 Alpha virt. eigenvalues --    1.51130   1.51822   1.52442   1.52811   1.54390
 Alpha virt. eigenvalues --    1.54923   1.55082   1.55973   1.57206   1.57238
 Alpha virt. eigenvalues --    1.57527   1.58356   1.60461   1.60902   1.61215
 Alpha virt. eigenvalues --    1.61902   1.62714   1.63413   1.65538   1.67389
 Alpha virt. eigenvalues --    1.69076   1.69633   1.70156   1.71906   1.72593
 Alpha virt. eigenvalues --    1.74138   1.74767   1.75947   1.77114   1.77766
 Alpha virt. eigenvalues --    1.78479   1.79726   1.80474   1.81000   1.82033
 Alpha virt. eigenvalues --    1.84203   1.84294   1.85238   1.85752   1.85796
 Alpha virt. eigenvalues --    1.86387   1.87122   1.87640   1.87893   1.88734
 Alpha virt. eigenvalues --    1.89795   1.90103   1.90322   1.90800   1.91895
 Alpha virt. eigenvalues --    1.92667   1.93744   1.94250   1.94700   1.94957
 Alpha virt. eigenvalues --    1.95356   1.95950   1.96581   1.97203   1.97630
 Alpha virt. eigenvalues --    1.98745   1.99111   1.99430   2.00013   2.00855
 Alpha virt. eigenvalues --    2.01791   2.02157   2.02428   2.02775   2.04207
 Alpha virt. eigenvalues --    2.04815   2.06003   2.06246   2.07127   2.07337
 Alpha virt. eigenvalues --    2.07621   2.08059   2.08731   2.09314   2.09588
 Alpha virt. eigenvalues --    2.09901   2.10631   2.11747   2.12011   2.12880
 Alpha virt. eigenvalues --    2.13005   2.14213   2.14465   2.15108   2.15795
 Alpha virt. eigenvalues --    2.16011   2.16470   2.17292   2.18827   2.18995
 Alpha virt. eigenvalues --    2.19857   2.20221   2.20675   2.21432   2.22288
 Alpha virt. eigenvalues --    2.23090   2.23360   2.23694   2.23749   2.24511
 Alpha virt. eigenvalues --    2.25344   2.25642   2.26205   2.27474   2.28278
 Alpha virt. eigenvalues --    2.29125   2.29868   2.30664   2.30837   2.31382
 Alpha virt. eigenvalues --    2.32113   2.33984   2.34594   2.35152   2.35564
 Alpha virt. eigenvalues --    2.35962   2.37353   2.37482   2.38484   2.38861
 Alpha virt. eigenvalues --    2.38947   2.40427   2.41040   2.41331   2.42608
 Alpha virt. eigenvalues --    2.43362   2.44384   2.45425   2.46139   2.47013
 Alpha virt. eigenvalues --    2.49328   2.50414   2.51811   2.52211   2.52609
 Alpha virt. eigenvalues --    2.54197   2.54360   2.55749   2.56903   2.59937
 Alpha virt. eigenvalues --    2.60909   2.61849   2.62261   2.63234   2.63605
 Alpha virt. eigenvalues --    2.64603   2.64752   2.65629   2.67150   2.68301
 Alpha virt. eigenvalues --    2.68878   2.69554   2.70153   2.71694   2.72739
 Alpha virt. eigenvalues --    2.73414   2.74467   2.76192   2.76639   2.77616
 Alpha virt. eigenvalues --    2.79508   2.80231   2.80545   2.80714   2.81598
 Alpha virt. eigenvalues --    2.83512   2.85380   2.86110   2.86984   2.88381
 Alpha virt. eigenvalues --    2.89293   2.91067   2.92587   2.93888   2.96899
 Alpha virt. eigenvalues --    2.99725   3.00391   3.03140   3.05318   3.10568
 Alpha virt. eigenvalues --    3.14763   3.16465   3.23891   3.41349   3.42747
 Alpha virt. eigenvalues --    3.96045   4.01838   4.04533   4.09309   4.10943
 Alpha virt. eigenvalues --    4.15603   4.16853   4.17720   4.18490   4.19605
 Alpha virt. eigenvalues --    4.21001   4.22991   4.24396   4.26345   4.27653
 Alpha virt. eigenvalues --    4.29509   4.32445   4.33067   4.34486   4.35035
 Alpha virt. eigenvalues --    4.40047   4.40529   4.41750   4.43699   4.46972
 Alpha virt. eigenvalues --    4.49015   4.55587   4.58152   4.59373   4.61236
 Alpha virt. eigenvalues --    4.63614   4.66193   4.73631   4.75640   4.76699
 Alpha virt. eigenvalues --    4.80091
          Condensed to atoms (all electrons):
 Mulliken charges:
               1
     1  C   -0.306298
     2  C   -0.307284
     3  C   -0.309191
     4  C   -0.060144
     5  C    0.055800
     6  C   -0.310863
     7  H    0.174327
     8  H    0.163010
     9  H    0.165823
    10  H    0.150721
    11  H    0.163842
    12  H    0.208851
    13  H    0.173749
    14  H    0.194131
    15  H    0.163414
    16  H    0.154706
    17  N   -0.431495
    18  C    0.067822
    19  C    0.064990
    20  C   -0.201554
    21  H    0.206043
    22  C   -0.209960
    23  H    0.244470
    24  C    0.446285
    25  H    0.192340
    26  H    0.211356
    27  N   -0.525130
    28  C   -0.169815
    29  H    0.169531
    30  H    0.227458
    31  C   -0.154104
    32  H    0.164363
    33  H    0.207195
    34  N   -0.812493
    35  S    1.251281
    36  O   -0.609907
    37  O   -0.603947
    38  C    0.080622
    39  C   -0.187018
    40  C   -0.190283
    41  C   -0.171895
    42  C   -0.163948
    43  C   -0.211460
    44  H    0.215904
    45  H    0.140331
    46  H    0.154963
    47  H    0.158567
    48  H    0.152353
    49  O   -0.553882
    50  H    0.446567
    51  C    0.722015
    52  O   -0.719834
    53  O   -0.717332
    54  H    0.442355
    55  C   -0.338110
    56  H    0.147720
    57  H    0.151040
    58  C   -0.088944
    59  H    0.138624
    60  H    0.148323
    61  C   -0.663637
    62  H    0.275669
    63  H    0.196672
    64  H    0.218020
    65  C   -0.290721
    66  H    0.133707
    67  H    0.145634
    68  C   -0.473251
    69  H    0.148606
    70  H    0.153355
    71  H    0.146255
    72  C   -0.332197
    73  H    0.186658
    74  H    0.162581
    75  C   -0.342599
    76  H    0.198659
    77  H    0.170586
 Sum of Mulliken charges =  -0.00000
 Mulliken charges with hydrogens summed into heavy atoms:
               1
     1  C    0.008265
     2  C    0.021549
     3  C    0.019843
     4  C    0.148707
     5  C    0.229549
     6  C    0.046683
    17  N   -0.431495
    18  C    0.273865
    19  C    0.309460
    20  C   -0.009214
    22  C    0.001396
    24  C    0.446285
    27  N   -0.525130
    28  C    0.227174
    31  C    0.217453
    34  N   -0.365925
    35  S    1.251281
    36  O   -0.609907
    37  O   -0.603947
    38  C    0.080622
    39  C    0.028886
    40  C   -0.049952
    41  C   -0.016932
    42  C   -0.005381
    43  C   -0.059107
    49  O   -0.553882
    51  C    0.722015
    52  O   -0.719834
    53  O   -0.274977
    55  C   -0.039350
    58  C    0.198004
    61  C    0.026723
    65  C   -0.011381
    68  C   -0.025036
    72  C    0.017042
    75  C    0.026647
 Electronic spatial extent (au):  <R**2>=          14358.2211
 Charge=             -0.0000 electrons
 Dipole moment (field-independent basis, Debye):
    X=             -2.7754    Y=             -2.0583    Z=             -6.2550  Tot=              7.1459
 Quadrupole moment (field-independent basis, Debye-Ang):
   XX=           -206.2911   YY=           -222.1751   ZZ=           -220.1615
   XY=            -12.6252   XZ=             -4.9986   YZ=             10.1623
 Traceless Quadrupole moment (field-independent basis, Debye-Ang):
   XX=              9.9181   YY=             -5.9659   ZZ=             -3.9523
   XY=            -12.6252   XZ=             -4.9986   YZ=             10.1623
 Octapole moment (field-independent basis, Debye-Ang**2):
  XXX=             12.0792  YYY=            -53.1170  ZZZ=             12.0424  XYY=              7.9695
  XXY=            -25.9519  XXZ=            -40.0004  XZZ=            -23.1074  YZZ=             13.3771
  YYZ=             19.5390  XYZ=            -19.1914
 Hexadecapole moment (field-independent basis, Debye-Ang**3):
 XXXX=          -9835.6858 YYYY=          -5440.0518 ZZZZ=          -3559.9966 XXXY=           -204.5074
 XXXZ=             -8.0943 YYYX=            -78.9393 YYYZ=             50.5345 ZZZX=           -101.4649
 ZZZY=              1.9499 XXYY=          -2556.6295 XXZZ=          -2327.2410 YYZZ=          -1605.7977
 XXYZ=             46.1156 YYXZ=             47.6210 ZZXY=            -55.1199
 N-N= 4.988577386375D+03 E-N=-1.462944497721D+04  KE= 1.976415774660D+03
 No NMR shielding tensors so no spin-rotation constants.
 Leave Link  601 at Thu Feb  7 13:31:53 2019, MaxMem=   104857600 cpu:              42.1 elap:               1.9
 (Enter /home/xinyan/g16/l701.exe)
 ... and contract with generalized density number  0.
 Compute integral first derivatives.
 R6Disp: Adding Grimme-D3 dispersion energy 1st derivatives to the gradient.
 Leave Link  701 at Thu Feb  7 13:31:54 2019, MaxMem=   104857600 cpu:              25.3 elap:               1.1
 (Enter /home/xinyan/g16/l702.exe)
 L702 exits ... SP integral derivatives will be done elsewhere.
 Leave Link  702 at Thu Feb  7 13:31:54 2019, MaxMem=   104857600 cpu:               1.4 elap:               0.1
 (Enter /home/xinyan/g16/l703.exe)
 Integral derivatives from FoFJK, PRISM(SPDF).
 Compute integral first derivatives, UseDBF=F ICtDFT=           0.
 Calling FoFJK, ICntrl=      2127 FMM=T ISym2X=0 I1Cent= 0 IOpClX= 0 NMat=1 NMatS=1 NMatT=0.
 FoFJK:  IHMeth= 1 ICntrl=    2127 DoSepK=F KAlg= 0 I1Cent=           0 FoldK=F
 IRaf=         0 NMat=       1 IRICut=       1 DoRegI=T DoRafI=F ISym2E= 0 IDoP0=0 IntGTp=1.
 FoFCou: FMM=T IPFlag=           0 FMFlag=      100000 FMFlg1=        2001
         NFxFlg=           0 DoJE=F BraDBF=F KetDBF=F FulRan=T
         wScrn=  0.000000 ICntrl=      2127 IOpCl=  0 I1Cent=           0 NGrid=           0
         NMat0=    1 NMatS0=      1 NMatT0=    0 NMatD0=    1 NMtDS0=    0 NMtDT0=    0
 Symmetry not used in FoFCou.
 FMM levels:  10  Number of levels for PrismC:   9
 Leave Link  703 at Thu Feb  7 13:32:30 2019, MaxMem=   104857600 cpu:             843.1 elap:              36.2
 (Enter /home/xinyan/g16/l716.exe)
 Dipole        =-1.09192954D+00-8.09809431D-01-2.46089893D+00
 ***** Axes restored to original set *****
 -------------------------------------------------------------------
 Center     Atomic                   Forces (Hartrees/Bohr)
 Number     Number              X              Y              Z
 -------------------------------------------------------------------
      1        6           0.000027371   -0.000006800    0.000002860
      2        6           0.000032589    0.000019249    0.000023720
      3        6           0.000028136    0.000003110    0.000006447
      4        6           0.000028388    0.000017264   -0.000027994
      5        6           0.000016489   -0.000021495   -0.000038114
      6        6           0.000027201   -0.000007241    0.000001904
      7        1           0.000000963    0.000011190   -0.000027259
      8        1           0.000015380    0.000013750   -0.000013511
      9        1           0.000019457    0.000030239   -0.000002704
     10        1           0.000040291    0.000033380   -0.000018588
     11        1           0.000037119    0.000010079    0.000007243
     12        1           0.000018594   -0.000062882    0.000049410
     13        1           0.000041058   -0.000046193   -0.000001622
     14        1           0.000034709   -0.000000512   -0.000015882
     15        1           0.000062370   -0.000014772   -0.000000674
     16        1           0.000007640    0.000012107   -0.000037197
     17        7           0.000002784   -0.000002344   -0.000012818
     18        6           0.000008297   -0.000004282   -0.000027663
     19        6           0.000003070   -0.000008669    0.000008879
     20        6           0.000011770   -0.000010314   -0.000004575
     21        1           0.000023420   -0.000029048   -0.000022547
     22        6           0.000012434   -0.000009015    0.000023534
     23        1          -0.000002691   -0.000028688   -0.000051859
     24        6           0.000009877   -0.000022051    0.000015158
     25        1           0.000035024    0.000007994    0.000004272
     26        1           0.000015962   -0.000002862    0.000007789
     27        7           0.000017597    0.000054831    0.000013203
     28        6           0.000001073    0.000033517    0.000064354
     29        1           0.000003982    0.000029332    0.000062716
     30        1          -0.000004071    0.000054115    0.000048267
     31        6           0.000001257    0.000011601    0.000018079
     32        1           0.000004866    0.000020183    0.000041261
     33        1           0.000000410    0.000025596    0.000054989
     34        7           0.000157023    0.000011984   -0.000109916
     35       16           0.000048891   -0.000040671   -0.000044883
     36        8          -0.000003969   -0.000081063   -0.000081359
     37        8           0.000015093   -0.000038397   -0.000035678
     38        6          -0.000005288    0.000048300    0.000027236
     39        6          -0.000046684    0.000097349    0.000000392
     40        6          -0.000046702    0.000072502    0.000042832
     41        6          -0.000034286    0.000038346    0.000042224
     42        6          -0.000046982    0.000013698    0.000084733
     43        6          -0.000033528    0.000037577    0.000050399
     44        1           0.000009503    0.000028694   -0.000005719
     45        1          -0.000031351    0.000069150    0.000015671
     46        1          -0.000053150    0.000050727    0.000059165
     47        1          -0.000039821    0.000007939    0.000074010
     48        1          -0.000033017   -0.000001576    0.000053255
     49        8          -0.000215034    0.000034411    0.000317992
     50        1          -0.000075852   -0.000114932    0.000017575
     51        6           0.000217338   -0.000030991    0.000009834
     52        8          -0.000170362   -0.000116317   -0.000085130
     53        8          -0.000211576    0.000041968   -0.000065853
     54        1           0.000079396    0.000115826    0.000070375
     55        6           0.000120040    0.000107890    0.000125379
     56        1           0.000004264   -0.000146786   -0.000214501
     57        1          -0.000152207    0.000050303   -0.000042278
     58        6          -0.000014764    0.000052231   -0.000072437
     59        1           0.000006213    0.000022237    0.000043905
     60        1           0.000016972    0.000020696    0.000000435
     61        6          -0.000063844   -0.000043153    0.000004403
     62        1           0.000026684    0.000068421   -0.000022034
     63        1          -0.000045257   -0.000051515   -0.000049396
     64        1          -0.000058793   -0.000033005   -0.000023897
     65        6           0.000051848    0.000008894    0.000047346
     66        1          -0.000141511   -0.000104283   -0.000119636
     67        1          -0.000073914    0.000104856    0.000005462
     68        6           0.000078486   -0.000127706   -0.000045728
     69        1           0.000024072   -0.000133470   -0.000125990
     70        1           0.000179035   -0.000169115   -0.000172646
     71        1          -0.000054463   -0.000158223   -0.000184384
     72        6           0.000001850    0.000043302    0.000041613
     73        1          -0.000008370    0.000053284    0.000063508
     74        1           0.000006403    0.000032359    0.000073800
     75        6          -0.000025505   -0.000016661    0.000045060
     76        1           0.000050745    0.000056960    0.000010053
     77        1           0.000009556    0.000007589    0.000023731
 -------------------------------------------------------------------
 Cartesian Forces:  Max     0.000317992 RMS     0.000066333
 Z-matrix is all fixed cartesians, so copy forces.
 Leave Link  716 at Thu Feb  7 13:32:31 2019, MaxMem=   104857600 cpu:               2.4 elap:               0.1
 (Enter /home/xinyan/g16/l103.exe)

 GradGradGradGradGradGradGradGradGradGradGradGradGradGradGradGradGradGrad
 Berny optimization.
 Search for a local minimum.
 Step number   1 out of a maximum of    2
 All quantities printed in internal units (Hartrees-Bohrs-Radians)
 Second derivative matrix not updated -- first step.
 ITU=  0
     Eigenvalues ---    0.00000   0.00000   0.00000   0.00000   0.00000
     Eigenvalues ---    0.00000   0.00006   0.00013   0.00018   0.00021
     Eigenvalues ---    0.00037   0.00038   0.00084   0.00093   0.00114
     Eigenvalues ---    0.00136   0.00139   0.00204   0.00234   0.00294
     Eigenvalues ---    0.00392   0.00407   0.00449   0.00501   0.00589
     Eigenvalues ---    0.00608   0.00613   0.00696   0.00710   0.00846
     Eigenvalues ---    0.00965   0.01119   0.01158   0.01481   0.01653
     Eigenvalues ---    0.01677   0.01890   0.01914   0.02042   0.02156
     Eigenvalues ---    0.02292   0.02305   0.02446   0.02531   0.02876
     Eigenvalues ---    0.02971   0.03079   0.03109   0.03217   0.03452
     Eigenvalues ---    0.03536   0.03719   0.03892   0.04194   0.04315
     Eigenvalues ---    0.04367   0.04800   0.04844   0.04860   0.04926
     Eigenvalues ---    0.05025   0.05068   0.05113   0.05118   0.05151
     Eigenvalues ---    0.05184   0.05257   0.05365   0.05467   0.05589
     Eigenvalues ---    0.05646   0.05670   0.05712   0.05744   0.05792
     Eigenvalues ---    0.06014   0.06140   0.06303   0.06525   0.06565
     Eigenvalues ---    0.06831   0.06849   0.06971   0.07022   0.07104
     Eigenvalues ---    0.07143   0.07242   0.07269   0.07330   0.07383
     Eigenvalues ---    0.07641   0.07813   0.07860   0.07948   0.08086
     Eigenvalues ---    0.08463   0.08529   0.08835   0.09033   0.09707
     Eigenvalues ---    0.09763   0.10163   0.10464   0.11262   0.11525
     Eigenvalues ---    0.11836   0.12135   0.12612   0.12845   0.12892
     Eigenvalues ---    0.12933   0.13027   0.13363   0.13675   0.13928
     Eigenvalues ---    0.14132   0.14409   0.14653   0.15692   0.15768
     Eigenvalues ---    0.16017   0.16110   0.16851   0.16959   0.16974
     Eigenvalues ---    0.17262   0.17300   0.17783   0.17877   0.19572
     Eigenvalues ---    0.19691   0.20342   0.20628   0.21601   0.21684
     Eigenvalues ---    0.23064   0.23352   0.23851   0.24815   0.26381
     Eigenvalues ---    0.27465   0.28597   0.29504   0.30039   0.30640
     Eigenvalues ---    0.31427   0.32292   0.34039   0.34739   0.36302
     Eigenvalues ---    0.36677   0.39401   0.40022   0.41196   0.43098
     Eigenvalues ---    0.43531   0.44549   0.48114   0.49044   0.50152
     Eigenvalues ---    0.53053   0.56783   0.57579   0.60091   0.64761
     Eigenvalues ---    0.65404   0.66341   0.67355   0.68222   0.68754
     Eigenvalues ---    0.70486   0.77647   0.78100   0.78573   0.81300
     Eigenvalues ---    0.83015   0.83346   0.85624   0.86209   0.87298
     Eigenvalues ---    0.88002   0.88684   0.90541   0.91305   0.93902
     Eigenvalues ---    0.94341   0.94793   0.94897   0.95692   0.96370
     Eigenvalues ---    0.97928   0.98000   0.99498   1.00423   1.00542
     Eigenvalues ---    1.00796   1.03955   1.04293   1.04495   1.06150
     Eigenvalues ---    1.06377   1.06773   1.07174   1.08741   1.09152
     Eigenvalues ---    1.13258   1.15684   1.15712   1.17139   1.19767
     Eigenvalues ---    1.21201   1.24089   1.26200   1.27748   1.37133
     Eigenvalues ---    1.47227   1.53548   1.58031   1.58452   1.58901
     Eigenvalues ---    1.59568   1.66885   1.72974   1.84244   2.34688
 Eigenvalue     1 is   6.66D-16 Eigenvector:
                          Y71       Y57       Y70       Y56       Y68
   1                    0.13516   0.13516   0.13516   0.13516   0.13516
                          Y53       Y55       Y69       Y54       Y65
   1                    0.13516   0.13516   0.13516   0.13516   0.13516
 Eigenvalue     2 is   5.46D-08 Eigenvector:
                          Y46       Y47       X45       Y41       X52
   1                    0.17523   0.15065  -0.14871   0.14722  -0.14412
                          X54       Y45       Y42       X40       X44
   1                   -0.14040   0.13496   0.13347  -0.13215  -0.13123
 Eigenvalue     3 is   6.93D-08 Eigenvector:
                          Z47       Y46       Z46       X54       Z42
   1                    0.19206  -0.18730   0.17847   0.16642   0.16505
                          Z41       X46       Y47       X53       Y41
   1                    0.15758  -0.15269  -0.15096   0.15028  -0.14759
 Eigenvalue     4 is   1.62D-07 Eigenvector:
                          Z77       Z76       Z57       Z71       Z75
   1                    0.18853   0.18138  -0.17213  -0.17053   0.16153
                          Y64       Z53       Z54       Z33       Z66
   1                   -0.15704  -0.15676  -0.15372   0.15086  -0.14760
 Eigenvalue     5 is   2.51D-07 Eigenvector:
                          Z47       Y46       Y64       Y9        Y47
   1                    0.18274   0.17489   0.15951  -0.15773   0.14903
                          Z42       Z48       Y71       Y7        Z46
   1                    0.14583   0.14322  -0.14223  -0.13926   0.13842
 Eigenvalue     6 is   4.72D-07 Eigenvector:
                          Y69       Z54       Y48       Y59       Y71
   1                    0.24906  -0.24636  -0.23203  -0.23065   0.19436
                          Y66       Y45       Z53       Z70       Z69
   1                    0.19123   0.18611  -0.18449   0.18099   0.17135
 Eigenvalue     7 is   5.51D-05 Eigenvector:
                          X69       X45       X70       X46       Z70
   1                    0.26758  -0.23386   0.22499  -0.22250   0.21578
                          Z69       X68       X67       X40       Z68
   1                    0.21565   0.20658   0.19528  -0.18016   0.17700
 Quadratic step=5.055D+00 exceeds max=3.000D-01 adjusted using Lamda=-1.886D-03.
 Angle between NR and scaled steps=  21.25 degrees.
 Angle between quadratic step and forces=  50.31 degrees.
 Linear search not attempted -- first point.
 B after Tr=    -0.000589    0.000359    0.000748
         Rot=    1.000000   -0.000171    0.000077   -0.000131 Ang=  -0.03 deg.
 Variable       Old X    -DE/DX   Delta X   Delta X   Delta X     New X
                                 (Linear)    (Quad)   (Total)
    X1       -9.28833   0.00003   0.00000   0.01589   0.01530  -9.27303
    Y1        0.46799  -0.00001   0.00000   0.00424   0.00245   0.47044
    Z1       -0.80984   0.00000   0.00000  -0.00524  -0.00576  -0.81560
    X2       -9.64221   0.00003   0.00000   0.00995   0.01023  -9.63198
    Y2       -1.94833   0.00002   0.00000   0.00538   0.00403  -1.94430
    Z2       -2.36359   0.00002   0.00000  -0.00568  -0.00708  -2.37068
    X3       -7.12695   0.00003   0.00000   0.00740   0.00809  -7.11886
    Y3       -2.81216   0.00000   0.00000  -0.00054  -0.00083  -2.81299
    Z3       -3.51504   0.00001   0.00000  -0.00727  -0.00858  -3.52362
    X4       -5.23545   0.00003   0.00000   0.00727   0.00775  -5.22770
    Y4       -3.24457   0.00002   0.00000  -0.00532  -0.00585  -3.25041
    Z4       -1.38594  -0.00003   0.00000  -0.00805  -0.00923  -1.39517
    X5       -4.80225   0.00002   0.00000   0.01314   0.01273  -4.78951
    Y5       -0.78609  -0.00002   0.00000  -0.00650  -0.00744  -0.79353
    Z5        0.14608  -0.00004   0.00000  -0.00862  -0.00888   0.13720
    X6       -7.30990   0.00003   0.00000   0.01620   0.01538  -7.29451
    Y6        0.12117  -0.00001   0.00000  -0.00101  -0.00299   0.11818
    Z6        1.27557   0.00000   0.00000  -0.00669  -0.00702   1.26854
    X7       -7.35952   0.00000   0.00000   0.00266   0.00397  -7.35555
    Y7       -4.54224   0.00001   0.00000   0.00035   0.00037  -4.54187
    Z7       -4.62688  -0.00003   0.00000  -0.00764  -0.00958  -4.63646
    X8      -10.38945   0.00002   0.00000   0.00697   0.00747 -10.38198
    Y8       -3.45544   0.00001   0.00000   0.00686   0.00490  -3.45054
    Z8       -1.14907  -0.00001   0.00000  -0.00568  -0.00771  -1.15678
    X9      -11.02701   0.00002   0.00000   0.00986   0.01029 -11.01671
    Y9       -1.64389   0.00003   0.00000   0.00911   0.00792  -1.63598
    Z9       -3.86946  -0.00000   0.00000  -0.00483  -0.00634  -3.87580
   X10       -8.68070   0.00004   0.00000   0.01838   0.01759  -8.66311
   Y10        1.99978   0.00003   0.00000   0.00358   0.00239   2.00218
   Z10       -2.07076  -0.00002   0.00000  -0.00496  -0.00486  -2.07562
   X11      -11.09186   0.00004   0.00000   0.01770   0.01683 -11.07503
   Y11        1.04566   0.00001   0.00000   0.00768   0.00514   1.05080
   Z11        0.02334   0.00001   0.00000  -0.00368  -0.00428   0.01905
   X12       -5.96641   0.00002   0.00000   0.00531   0.00596  -5.96045
   Y12       -4.69627  -0.00006   0.00000  -0.00410  -0.00526  -4.70153
   Z12       -0.10722   0.00005   0.00000  -0.00744  -0.00922  -0.11644
   X13       -4.17423   0.00004   0.00000   0.01630   0.01572  -4.15851
   Y13        0.66012  -0.00005   0.00000  -0.00787  -0.00818   0.65194
   Z13       -1.20136  -0.00000   0.00000  -0.00848  -0.00816  -1.20951
   X14       -7.98387   0.00003   0.00000   0.01399   0.01332  -7.97054
   Y14       -1.25209  -0.00000   0.00000   0.00004  -0.00259  -1.25468
   Z14        2.66905  -0.00002   0.00000  -0.00674  -0.00765   2.66140
   X15       -6.96504   0.00006   0.00000   0.02142   0.01998  -6.94506
   Y15        1.91441  -0.00001   0.00000  -0.00230  -0.00452   1.90989
   Z15        2.25013  -0.00000   0.00000  -0.00615  -0.00582   2.24432
   X16       -6.44869   0.00001   0.00000   0.01002   0.01052  -6.43817
   Y16       -1.32247   0.00001   0.00000  -0.00177  -0.00145  -1.32392
   Z16       -4.79136  -0.00004   0.00000  -0.00740  -0.00810  -4.79947
   X17       -2.73045   0.00000   0.00000   0.00647   0.00732  -2.72313
   Y17       -4.15197  -0.00000   0.00000  -0.00823  -0.00781  -4.15979
   Z17       -2.22336  -0.00001   0.00000  -0.00674  -0.00783  -2.23119
   X18       -1.40928   0.00001   0.00000   0.00890   0.00967  -1.39961
   Y18       -2.82491  -0.00000   0.00000  -0.00908  -0.00772  -2.83264
   Z18       -3.98394  -0.00003   0.00000  -0.00557  -0.00600  -3.98994
   X19       -1.43910   0.00000   0.00000   0.00436   0.00536  -1.43375
   Y19       -5.69694  -0.00001   0.00000  -0.00631  -0.00611  -5.70305
   Z19       -0.62724   0.00001   0.00000  -0.00317  -0.00460  -0.63184
   X20        1.15396   0.00001   0.00000   0.00943   0.01025   1.16421
   Y20       -2.93223  -0.00001   0.00000  -0.00607  -0.00399  -2.93622
   Z20       -4.14527  -0.00000   0.00000   0.00093   0.00085  -4.14442
   X21       -2.51143   0.00002   0.00000   0.01046   0.01110  -2.50033
   Y21       -1.61379  -0.00003   0.00000  -0.01133  -0.00984  -1.62363
   Z21       -5.21160  -0.00002   0.00000  -0.00916  -0.00936  -5.22096
   X22        1.12482   0.00001   0.00000   0.00469   0.00574   1.13056
   Y22       -5.88115  -0.00001   0.00000  -0.00247  -0.00159  -5.88274
   Z22       -0.65311   0.00002   0.00000   0.00398   0.00289  -0.65021
   X23       -2.57230  -0.00000   0.00000   0.00193   0.00297  -2.56932
   Y23       -6.67576  -0.00003   0.00000  -0.00691  -0.00749  -6.68325
   Z23        0.77246  -0.00005   0.00000  -0.00562  -0.00756   0.76491
   X24        2.55334   0.00001   0.00000   0.00649   0.00738   2.56072
   Y24       -4.31073  -0.00002   0.00000  -0.00094   0.00088  -4.30985
   Z24       -2.29696   0.00002   0.00000   0.00704   0.00670  -2.29026
   X25        2.10189   0.00004   0.00000   0.01170   0.01244   2.11433
   Y25       -1.82117   0.00001   0.00000  -0.00616  -0.00334  -1.82451
   Z25       -5.57537   0.00000   0.00000   0.00230   0.00275  -5.57262
   X26        2.02180   0.00002   0.00000   0.00274   0.00387   2.02567
   Y26       -7.04068  -0.00000   0.00000  -0.00002   0.00060  -7.04008
   Z26        0.76870   0.00001   0.00000   0.00723   0.00588   0.77458
   X27        5.05056   0.00002   0.00000   0.00548   0.00630   5.05686
   Y27       -4.13988   0.00005   0.00000   0.00534   0.00774  -4.13214
   Z27       -2.12097   0.00001   0.00000   0.01508   0.01519  -2.10578
   X28        6.40566   0.00000   0.00000   0.00035   0.00107   6.40673
   Y28       -5.09684   0.00003   0.00000   0.01401   0.01600  -5.08084
   Z28        0.10885   0.00006   0.00000   0.02197   0.02197   0.13081
   X29        6.16820   0.00000   0.00000   0.00190   0.00313   6.17133
   Y29       -7.14192   0.00003   0.00000   0.01437   0.01623  -7.12568
   Z29        0.28527   0.00006   0.00000   0.02823   0.02750   0.31277
   X30        5.64966  -0.00000   0.00000  -0.00493  -0.00472   5.64494
   Y30       -4.12856   0.00005   0.00000   0.01897   0.02018  -4.10838
   Z30        1.78555   0.00005   0.00000   0.01680   0.01701   1.80256
   X31        6.45355   0.00000   0.00000   0.00477   0.00523   6.45878
   Y31       -2.07450   0.00001   0.00000   0.00554   0.00873  -2.06578
   Z31       -3.34051   0.00002   0.00000   0.01475   0.01578  -3.32472
   X32        6.94635   0.00000   0.00000   0.00778   0.00869   6.95503
   Y32       -2.60315   0.00002   0.00000   0.00360   0.00758  -2.59558
   Z32       -5.28345   0.00004   0.00000   0.01608   0.01702  -5.26643
   X33        5.27322   0.00000   0.00000   0.00288   0.00290   5.27612
   Y33       -0.37874   0.00003   0.00000   0.00429   0.00717  -0.37157
   Z33       -3.33440   0.00005   0.00000   0.01121   0.01264  -3.32176
   X34       -2.71423   0.00016   0.00000   0.01234   0.01172  -2.70251
   Y34       -1.00360   0.00001   0.00000  -0.01165  -0.01265  -1.01624
   Z34        1.92189  -0.00011   0.00000  -0.00880  -0.00882   1.91307
   X35       -2.83591   0.00005   0.00000   0.00663   0.00605  -2.82986
   Y35       -2.66372  -0.00004   0.00000  -0.01379  -0.01571  -2.67943
   Z35        4.51994  -0.00004   0.00000  -0.01067  -0.01127   4.50867
   X36       -5.13990  -0.00000   0.00000   0.00809   0.00792  -5.13198
   Y36       -4.20005  -0.00008   0.00000  -0.01567  -0.01817  -4.21821
   Z36        4.44855  -0.00008   0.00000  -0.01902  -0.02051   4.42804
   X37       -0.42139   0.00002   0.00000   0.00674   0.00645  -0.41494
   Y37       -3.97562  -0.00004   0.00000  -0.01214  -0.01355  -3.98917
   Z37        4.85166  -0.00004   0.00000  -0.00491  -0.00559   4.84608
   X38       -1.30894  -0.00001   0.00000  -0.00831  -0.01017  -1.31911
   Y38        4.61362   0.00005   0.00000   0.02028   0.02015   4.63376
   Z38        0.42330   0.00003   0.00000   0.01386   0.01599   0.43929
   X39       -0.36617  -0.00005   0.00000  -0.01164  -0.01292  -0.37909
   Y39        3.70743   0.00010   0.00000   0.02802   0.02892   3.73636
   Z39       -1.88491   0.00000   0.00000   0.00938   0.01135  -1.87356
   X40       -1.78611  -0.00005   0.00000  -0.01805  -0.01904  -1.80515
   Y40        3.92330   0.00007   0.00000   0.02861   0.02989   3.95319
   Z40       -4.09283   0.00004   0.00000   0.01358   0.01540  -4.07742
   X41       -4.17801  -0.00003   0.00000  -0.02157  -0.02285  -4.20087
   Y41        5.03068   0.00004   0.00000   0.02071   0.02135   5.05203
   Z41       -4.06113   0.00004   0.00000   0.02241   0.02423  -4.03690
   X42       -5.13820  -0.00005   0.00000  -0.01862  -0.02049  -5.15870
   Y42        5.93009   0.00001   0.00000   0.01219   0.01180   5.94189
   Z42       -1.78262   0.00008   0.00000   0.02703   0.02902  -1.75360
   X43       -3.70730  -0.00003   0.00000  -0.01196  -0.01412  -3.72142
   Y43        5.72247   0.00004   0.00000   0.01241   0.01165   5.73412
   Z43        0.42199   0.00005   0.00000   0.02268   0.02481   0.44681
   X44        1.43742   0.00001   0.00000  -0.00862  -0.00965   1.42778
   Y44        2.73332   0.00003   0.00000   0.03338   0.03476   2.76808
   Z44       -1.88874  -0.00001   0.00000   0.00233   0.00424  -1.88450
   X45       -1.00352  -0.00003   0.00000  -0.02032  -0.02086  -1.02438
   Y45        3.23051   0.00007   0.00000   0.03524   0.03733   3.26784
   Z45       -5.86390   0.00002   0.00000   0.00995   0.01166  -5.85224
   X46       -5.27207  -0.00005   0.00000  -0.02667  -0.02773  -5.29980
   Y46        5.20340   0.00005   0.00000   0.02118   0.02213   5.22553
   Z46       -5.79003   0.00006   0.00000   0.02570   0.02741  -5.76261
   X47       -6.99573  -0.00004   0.00000  -0.02147  -0.02358  -7.01931
   Y47        6.80283   0.00001   0.00000   0.00558   0.00468   6.80750
   Z47       -1.71770   0.00007   0.00000   0.03399   0.03598  -1.68172
   X48       -4.47370  -0.00003   0.00000  -0.00985  -0.01246  -4.48616
   Y48        6.44869  -0.00000   0.00000   0.00583   0.00426   6.45295
   Z48        2.18689   0.00005   0.00000   0.02630   0.02856   2.21545
   X49        1.06743  -0.00022   0.00000  -0.00689  -0.00871   1.05872
   Y49        2.36550   0.00003   0.00000   0.02055   0.01984   2.38534
   Z49        3.93322   0.00032   0.00000   0.01364   0.01536   3.94858
   X50       -0.86652  -0.00008   0.00000   0.01325   0.01260  -0.85392
   Y50       -0.53612  -0.00011   0.00000  -0.01370  -0.01403  -0.55014
   Z50        1.36527   0.00002   0.00000  -0.00639  -0.00596   1.35931
   X51        3.28871   0.00022   0.00000  -0.02026  -0.02155   3.26716
   Y51        1.03714  -0.00003   0.00000   0.00502   0.00528   1.04242
   Z51        2.77085   0.00001   0.00000   0.00439   0.00600   2.77685
   X52        2.62109  -0.00017   0.00000  -0.04042  -0.04109   2.57999
   Y52       -0.04811  -0.00012   0.00000  -0.00256  -0.00175  -0.04986
   Z52        0.63963  -0.00009   0.00000   0.01425   0.01538   0.65501
   X53        3.93951  -0.00021   0.00000  -0.01648  -0.01762   3.92189
   Y53       -0.68659   0.00004   0.00000   0.01139   0.01116  -0.67543
   Z53        4.71222  -0.00007   0.00000   0.00838   0.00950   4.72172
   X54        2.62844   0.00008   0.00000  -0.02269  -0.02349   2.60495
   Y54       -1.97828   0.00012   0.00000   0.01747   0.01691  -1.96137
   Z54        4.65865   0.00007   0.00000   0.02355   0.02403   4.68267
   X55        5.53871   0.00012   0.00000  -0.00953  -0.01129   5.52742
   Y55        2.91069   0.00011   0.00000  -0.00826  -0.00738   2.90331
   Z55        2.70163   0.00013   0.00000  -0.01903  -0.01643   2.68520
   X56        5.36142   0.00000   0.00000   0.01181   0.00946   5.37088
   Y56        4.20916  -0.00015   0.00000  -0.00243  -0.00214   4.20702
   Z56        4.31069  -0.00021   0.00000  -0.02222  -0.01921   4.29149
   X57        7.23884  -0.00015   0.00000  -0.01474  -0.01627   7.22258
   Y57        1.78653   0.00005   0.00000  -0.01852  -0.01732   1.76921
   Z57        3.08451  -0.00004   0.00000  -0.02829  -0.02582   3.05868
   X58        0.20407  -0.00001   0.00000  -0.00141  -0.00366   0.20041
   Y58        4.64005   0.00005   0.00000   0.02086   0.02028   4.66033
   Z58        2.89289  -0.00007   0.00000   0.00967   0.01205   2.90493
   X59       -1.04215   0.00001   0.00000   0.00580   0.00311  -1.03904
   Y59        5.46216   0.00002   0.00000   0.02864   0.02724   5.48940
   Z59        4.33422   0.00004   0.00000   0.01148   0.01395   4.34817
   X60        1.77680   0.00002   0.00000   0.00283   0.00027   1.77706
   Y60        5.98229   0.00002   0.00000   0.01457   0.01448   5.99677
   Z60        2.67062   0.00000   0.00000   0.00159   0.00466   2.67528
   X61       -3.07663  -0.00006   0.00000  -0.00440  -0.00595  -3.08258
   Y61       -0.42037  -0.00004   0.00000  -0.01457  -0.01741  -0.43778
   Z61        7.00812   0.00000   0.00000  -0.01080  -0.01068   6.99745
   X62       -1.40471   0.00003   0.00000  -0.00632  -0.00817  -1.41288
   Y62        0.78467   0.00007   0.00000  -0.01077  -0.01312   0.77155
   Z62        6.85479  -0.00002   0.00000  -0.00531  -0.00452   6.85027
   X63       -4.81523  -0.00005   0.00000  -0.00578  -0.00757  -4.82280
   Y63        0.65564  -0.00005   0.00000  -0.01810  -0.02130   0.63434
   Z63        6.73772  -0.00005   0.00000  -0.01648  -0.01626   6.72147
   X64       -3.12253  -0.00006   0.00000  -0.00871  -0.01027  -3.13280
   Y64       -1.46272  -0.00003   0.00000  -0.01490  -0.01836  -1.48109
   Z64        8.78691  -0.00002   0.00000  -0.01111  -0.01135   8.77556
   X65        5.93992   0.00005   0.00000  -0.01713  -0.01890   5.92102
   Y65        4.39301   0.00001   0.00000  -0.01917  -0.01735   4.37566
   Z65        0.26010   0.00005   0.00000  -0.02688  -0.02372   0.23638
   X66        6.26301  -0.00014   0.00000  -0.06207  -0.06325   6.19976
   Y66        3.07028  -0.00010   0.00000  -0.02769  -0.02526   3.04502
   Z66       -1.30121  -0.00012   0.00000  -0.02927  -0.02652  -1.32773
   X67        4.24487  -0.00007   0.00000  -0.00559  -0.00757   4.23730
   Y67        5.45747   0.00010   0.00000   0.01036   0.01192   5.46939
   Z67       -0.26379   0.00001   0.00000  -0.00524  -0.00197  -0.26575
   X68        8.16806   0.00008   0.00000   0.01956   0.01730   8.18536
   Y68        6.21523  -0.00013   0.00000  -0.05986  -0.05751   6.15773
   Z68        0.48855  -0.00005   0.00000  -0.06112  -0.05700   0.43155
   X69        8.50277   0.00002   0.00000   0.01293   0.01067   8.51343
   Y69        7.25116  -0.00013   0.00000  -0.06766  -0.06462   7.18655
   Z69       -1.26971  -0.00013   0.00000  -0.06697  -0.06245  -1.33216
   X70        7.82335   0.00018   0.00000   0.06792   0.06506   7.88841
   Y70        7.60343  -0.00017   0.00000  -0.05243  -0.05067   7.55275
   Z70        1.98610  -0.00017   0.00000  -0.05729  -0.05274   1.93337
   X71        9.90727  -0.00005   0.00000   0.00771   0.00565   9.91292
   Y71        5.20179  -0.00016   0.00000  -0.09183  -0.08919   5.11260
   Z71        0.97708  -0.00018   0.00000  -0.08612  -0.08209   0.89499
   X72        9.12915   0.00000   0.00000   0.00099   0.00158   9.13074
   Y72       -4.32041   0.00004   0.00000   0.01471   0.01758  -4.30282
   Z72       -0.41650   0.00004   0.00000   0.02641   0.02709  -0.38940
   X73       10.25475  -0.00001   0.00000  -0.00348  -0.00317  10.25158
   Y73       -4.24189   0.00005   0.00000   0.02143   0.02401  -4.21787
   Z73        1.30994   0.00006   0.00000   0.02903   0.02992   1.33986
   X74       10.01579   0.00001   0.00000   0.00533   0.00648  10.02227
   Y74       -5.65843   0.00003   0.00000   0.01095   0.01451  -5.64392
   Z74       -1.72451   0.00007   0.00000   0.03325   0.03362  -1.69089
   X75        8.78728  -0.00003   0.00000   0.00265   0.00276   8.79004
   Y75       -1.73435  -0.00002   0.00000   0.01030   0.01352  -1.72083
   Z75       -1.66345   0.00005   0.00000   0.01681   0.01833  -1.64512
   X76        8.34539   0.00005   0.00000   0.00177   0.00129   8.34668
   Y76       -0.33737   0.00006   0.00000   0.01574   0.01834  -0.31903
   Z76       -0.20711   0.00001   0.00000   0.01131   0.01324  -0.19387
   X77       10.43630   0.00001   0.00000   0.00410   0.00422  10.44051
   Y77       -1.09757   0.00001   0.00000   0.00615   0.01016  -1.08741
   Z77       -2.72814   0.00002   0.00000   0.01656   0.01855  -2.70959
         Item               Value     Threshold  Converged?
 Maximum Force            0.000318     0.000450     YES
 RMS     Force            0.000066     0.000300     YES
 Maximum Displacement     0.089190     0.001800     NO 
 RMS     Displacement     0.019669     0.001200     NO 
 Predicted change in Energy=-1.842970D-04
 GradGradGradGradGradGradGradGradGradGradGradGradGradGradGradGradGradGrad

 Leave Link  103 at Thu Feb  7 13:32:32 2019, MaxMem=   104857600 cpu:              31.3 elap:               1.4
 (Enter /home/xinyan/g16/l9999.exe)
 1\1\GINC-TSE4\Force\RM062X\6-31G(d)\C27H41N3O5S1\STEVETSE\07-Feb-2019\
 0\\#p M062X/6-31G* em=gd3 force int=ultrafine\\Title\\0,1\C,-4.91517,0
 .24765,-0.42855\C,-5.10244,-1.03101,-1.25076\C,-3.77142,-1.48813,-1.86
 008\C,-2.77048,-1.71695,-0.73341\C,-2.54124,-0.41598,0.0773\C,-3.86823
 ,0.06412,0.675\H,-3.89449,-2.40365,-2.44844\H,-5.49786,-1.82854,-0.608
 06\H,-5.83524,-0.86991,-2.04763\H,-4.59363,1.05824,-1.0958\H,-5.86956,
 0.55334,0.01235\H,-3.15729,-2.48516,-0.05674\H,-2.20891,0.34932,-0.635
 73\H,-4.22488,-0.66258,1.4124\H,-3.68574,1.01306,1.19072\H,-3.4125,-0.
 69982,-2.53548\N,-1.44489,-2.19713,-1.17655\C,-0.74576,-1.49488,-2.108
 21\C,-0.76154,-3.01469,-0.33192\C,0.61065,-1.55167,-2.19358\H,-1.32899
 ,-0.85398,-2.75786\C,0.59523,-3.11217,-0.34561\H,-1.3612,-3.53266,0.40
 877\C,1.35117,-2.28114,-1.2155\H,1.11227,-0.96372,-2.95036\H,1.06989,-
 3.72577,0.40678\N,2.67264,-2.19073,-1.12237\C,3.38973,-2.69713,0.0576\
 H,3.26407,-3.77934,0.15096\H,2.98967,-2.18474,0.94487\C,3.41507,-1.097
 78,-1.76772\H,3.67585,-1.37753,-2.79588\H,2.79047,-0.20042,-1.76449\N,
 -1.43631,-0.53108,1.01702\S,-1.5007,-1.40958,2.39185\O,-2.71992,-2.222
 57,2.35407\O,-0.22299,-2.10381,2.56739\C,-0.69266,2.44142,0.224\C,-0.1
 9377,1.96189,-0.99745\C,-0.94517,2.07612,-2.16583\C,-2.21091,2.66212,-
 2.14906\C,-2.71902,3.13807,-0.94332\C,-1.96182,3.0282,0.22331\H,0.7606
 5,1.44641,-0.99948\H,-0.53104,1.70951,-3.10304\H,-2.78986,2.75352,-3.0
 6395\H,-3.70198,3.5999,-0.90897\H,-2.36738,3.4125,1.15725\O,0.56486,1.
 25177,2.08137\H,-0.45854,-0.2837,0.72247\C,1.74031,0.54883,1.46627\O,1
 .38702,-0.02546,0.33848\O,2.0847,-0.36333,2.4936\H,1.39091,-1.04686,2.
 46525\C,2.93096,1.54027,1.42964\H,2.83714,2.22739,2.28112\H,3.83063,0.
 94539,1.63225\C,0.10799,2.45541,1.53085\H,-0.55148,2.89045,2.29357\H,0
 .94024,3.16569,1.41323\C,-1.62808,-0.22245,3.70854\H,-0.74334,0.41523,
 3.6274\H,-2.54811,0.34695,3.56545\H,-1.65237,-0.77404,4.64983\C,3.1432
 7,2.32468,0.13764\H,3.31424,1.62472,-0.68857\H,2.24629,2.88797,-0.1395
 9\C,4.32235,3.28896,0.25853\H,4.49947,3.83715,-0.6719\H,4.13994,4.0235
 6,1.051\H,5.2427,2.75267,0.51705\C,4.83094,-2.28626,-0.2204\H,5.42658,
 -2.24471,0.69319\H,5.30013,-2.99431,-0.91257\C,4.65003,-0.91778,-0.880
 26\H,4.41619,-0.17853,-0.1096\H,5.52265,-0.58081,-1.44367\\Version=ES6
 4L-G16RevA.03\State=1-A\HF=-1991.3579024\RMSD=9.224e-09\RMSF=6.633e-05
 \Dipole=-1.0392331,-0.7237458,-2.5100421\Quadrupole=7.5664256,-4.99852
 28,-2.5679029,-9.3814596,-3.8530629,7.2849367\PG=C01 [X(C27H41N3O5S1)]
 \\@


 I SUPPOSE A BABY LLAMA HAS A MMAMA AND A PPOPA.
     -- RICHARD AMOUR
 Job cpu time:       0 days  1 hours 19 minutes 44.1 seconds.
 Elapsed time:       0 days  0 hours  3 minutes 21.5 seconds.
 File lengths (MBytes):  RWF=    216 Int=      0 D2E=      0 Chk=     25 Scr=      1
 Normal termination of Gaussian 16 at Thu Feb  7 13:32:32 2019.
