 Entering Gaussian System, Link 0=g16
 Input=C27N3H41SO5-234.gjf
 Output=C27N3H41SO5-234.log
 Initial command:
 /home/xinyan/g16/l1.exe "/local/home/tmp/Gau-28330.inp" -scrdir="/local/home/tmp/"
 Entering Link 1 = /home/xinyan/g16/l1.exe PID=     28331.
  
 Copyright (c) 1988,1990,1992,1993,1995,1998,2003,2009,2016,
            Gaussian, Inc.  All Rights Reserved.
  
 This is part of the Gaussian(R) 16 program.  It is based on
 the Gaussian(R) 09 system (copyright 2009, Gaussian, Inc.),
 the Gaussian(R) 03 system (copyright 2003, Gaussian, Inc.),
 the Gaussian(R) 98 system (copyright 1998, Gaussian, Inc.),
 the Gaussian(R) 94 system (copyright 1995, Gaussian, Inc.),
 the Gaussian 92(TM) system (copyright 1992, Gaussian, Inc.),
 the Gaussian 90(TM) system (copyright 1990, Gaussian, Inc.),
 the Gaussian 88(TM) system (copyright 1988, Gaussian, Inc.),
 the Gaussian 86(TM) system (copyright 1986, Carnegie Mellon
 University), and the Gaussian 82(TM) system (copyright 1983,
 Carnegie Mellon University). Gaussian is a federally registered
 trademark of Gaussian, Inc.
  
 This software contains proprietary and confidential information,
 including trade secrets, belonging to Gaussian, Inc.
  
 This software is provided under written license and may be
 used, copied, transmitted, or stored only in accord with that
 written license.
  
 The following legend is applicable only to US Government
 contracts under FAR:
  
                    RESTRICTED RIGHTS LEGEND
  
 Use, reproduction and disclosure by the US Government is
 subject to restrictions as set forth in subparagraphs (a)
 and (c) of the Commercial Computer Software - Restricted
 Rights clause in FAR 52.227-19.
  
 Gaussian, Inc.
 340 Quinnipiac St., Bldg. 40, Wallingford CT 06492
  
  
 ---------------------------------------------------------------
 Warning -- This program may not be used in any manner that
 competes with the business of Gaussian, Inc. or will provide
 assistance to any competitor of Gaussian, Inc.  The licensee
 of this program is prohibited from giving any competitor of
 Gaussian, Inc. access to this program.  By using this program,
 the user acknowledges that Gaussian, Inc. is engaged in the
 business of creating and licensing software in the field of
 computational chemistry and represents and warrants to the
 licensee that it is not a competitor of Gaussian, Inc. and that
 it will not use this program in any manner prohibited above.
 ---------------------------------------------------------------
  

 Cite this work as:
 Gaussian 16, Revision A.03,
 M. J. Frisch, G. W. Trucks, H. B. Schlegel, G. E. Scuseria, 
 M. A. Robb, J. R. Cheeseman, G. Scalmani, V. Barone, 
 G. A. Petersson, H. Nakatsuji, X. Li, M. Caricato, A. V. Marenich, 
 J. Bloino, B. G. Janesko, R. Gomperts, B. Mennucci, H. P. Hratchian, 
 J. V. Ortiz, A. F. Izmaylov, J. L. Sonnenberg, D. Williams-Young, 
 F. Ding, F. Lipparini, F. Egidi, J. Goings, B. Peng, A. Petrone, 
 T. Henderson, D. Ranasinghe, V. G. Zakrzewski, J. Gao, N. Rega, 
 G. Zheng, W. Liang, M. Hada, M. Ehara, K. Toyota, R. Fukuda, 
 J. Hasegawa, M. Ishida, T. Nakajima, Y. Honda, O. Kitao, H. Nakai, 
 T. Vreven, K. Throssell, J. A. Montgomery, Jr., J. E. Peralta, 
 F. Ogliaro, M. J. Bearpark, J. J. Heyd, E. N. Brothers, K. N. Kudin, 
 V. N. Staroverov, T. A. Keith, R. Kobayashi, J. Normand, 
 K. Raghavachari, A. P. Rendell, J. C. Burant, S. S. Iyengar, 
 J. Tomasi, M. Cossi, J. M. Millam, M. Klene, C. Adamo, R. Cammi, 
 J. W. Ochterski, R. L. Martin, K. Morokuma, O. Farkas, 
 J. B. Foresman, and D. J. Fox, Gaussian, Inc., Wallingford CT, 2016.
 
 ******************************************
 Gaussian 16:  ES64L-G16RevA.03 25-Dec-2016
                 7-Feb-2019 
 ******************************************
 %nproc=24
 Will use up to   24 processors via shared memory.
 ------------------------------------------
 #p M062X/6-31G* em=gd3 force int=ultrafine
 ------------------------------------------
 1/10=7,30=1,38=1/1,3;
 2/12=2,17=6,18=5,40=1/2;
 3/5=1,6=6,7=1,11=2,25=1,30=1,71=1,74=-55,75=-5,124=31/1,2,3;
 4//1;
 5/5=2,38=5/2;
 6/7=2,8=2,9=2,10=2,28=1/1;
 7/29=1/1,2,3,16;
 1/10=7,30=1/3;
 99//99;
 Leave Link    1 at Thu Feb  7 21:30:49 2019, MaxMem=           0 cpu:               2.5 elap:               0.1
 (Enter /home/xinyan/g16/l101.exe)
 -----
 Title
 -----
 Symbolic Z-matrix:
 Charge =  0 Multiplicity = 1
 C                    -4.95188   0.25174  -0.33973 
 C                    -5.11529  -1.01062  -1.19145 
 C                    -3.76919  -1.44868  -1.78235 
 C                    -2.78525  -1.69385  -0.64277 
 C                    -2.57652  -0.40988   0.20853 
 C                    -3.92746   0.04377   0.77974 
 H                    -3.87942  -2.34831  -2.39847 
 H                    -5.51912  -1.82181  -0.57168 
 H                    -5.8321   -0.83919  -2.00129 
 H                    -4.61053   1.07418  -0.98439 
 H                    -5.91916   0.55222   0.07689 
 H                    -3.16592  -2.48822   0.00691 
 H                    -2.2716    0.36403  -0.51275 
 H                    -4.28864  -0.69909   1.50145 
 H                    -3.75807   0.98314   1.31981 
 H                    -3.4057   -0.63962  -2.43088 
 N                    -1.44596  -2.14906  -1.08902 
 C                    -0.77354  -1.47932  -2.05462 
 C                    -0.74734  -2.95404  -0.25335 
 C                     0.57981  -1.57977  -2.20663 
 H                    -1.36646  -0.83136  -2.68716 
 C                     0.60773  -3.1039   -0.34156 
 H                    -1.32341  -3.43786   0.52819 
 C                     1.34456  -2.34045  -1.27851 
 H                     1.05762  -1.01819  -2.99876 
 H                     1.09459  -3.71941   0.40176 
 N                     2.6855   -2.31981  -1.27021 
 C                     3.42794  -2.85945  -0.12257 
 H                     3.30621  -3.94408  -0.0557 
 H                     3.04698  -2.39842   0.79947 
 C                     3.45232  -1.26526  -1.95473 
 H                     3.71354  -1.58701  -2.96987 
 H                     2.86064  -0.34728  -1.99999 
 N                    -1.46361  -0.51649   1.12097 
 S                    -1.50527  -1.42949   2.41255 
 O                    -2.62935  -2.3899    2.42642 
 O                    -0.15775  -2.0275    2.61362 
 C                    -0.83981   2.59188   0.09562 
 C                    -0.2536    1.92471  -0.98802 
 C                    -0.87691   1.94768  -2.23443 
 C                    -2.10154   2.59487  -2.4071 
 C                    -2.70036   3.23046  -1.32252 
 C                    -2.06573   3.2283   -0.08341 
 H                     0.66574   1.36021  -0.84055 
 H                    -0.40643   1.45372  -3.08226 
 H                    -2.58748   2.60381  -3.37818 
 H                    -3.6593    3.72693  -1.43483 
 H                    -2.529     3.71734   0.76998 
 O                     0.24019   1.34533   1.8736 
 H                    -0.38695   0.64795   1.4823 
 C                     2.3407    0.23294   1.33673 
 O                     1.99141  -0.14461   0.23447 
 O                     2.15713  -0.47563   2.44572 
 H                     1.39874  -1.10606   2.32765 
 C                     3.11133   1.51233   1.57127 
 H                     2.58634   2.05615   2.36363 
 H                     4.09666   1.24694   1.97754 
 C                    -0.19245   2.60381   1.46352 
 H                    -0.90236   3.03856   2.18522 
 H                     0.69007   3.26177   1.45383 
 C                    -1.68998  -0.3193    3.80775 
 H                    -0.87081   0.39993   3.73223 
 H                    -2.65365   0.18767   3.72858 
 H                    -1.62389  -0.89188   4.73368 
 C                     3.26063   2.36708   0.3151 
 H                     3.63512   1.7471   -0.50799 
 H                     2.2751    2.72161  -0.00865 
 C                     4.19222   3.55561   0.53929 
 H                     4.33085   4.13462  -0.37838 
 H                     3.79573   4.231     1.30481 
 H                     5.17873   3.21819   0.87532 
 C                     4.86782  -2.43769  -0.39961 
 H                     5.46149  -2.38936   0.51552 
 H                     5.34348  -3.14702  -1.08441 
 C                     4.69218  -1.07592  -1.07493 
 H                     4.47444  -0.3169   -0.3186 
 H                     5.56523  -0.75593  -1.64734 
 
 ITRead=  0  0  0  0  0  0  0  0  0  0  0  0  0  0  0  0  0  0  0  0
 ITRead=  0  0  0  0  0  0  0  0  0  0  0  0  0  0  0  0  0  0  0  0
 ITRead=  0  0  0  0  0  0  0  0  0  0  0  0  0  0  0  0  0  0  0  0
 ITRead=  0  0  0  0  0  0  0  0  0  0  0  0  0  0  0  0  0
 MicOpt= -1 -1 -1 -1 -1 -1 -1 -1 -1 -1 -1 -1 -1 -1 -1 -1 -1 -1 -1 -1
 MicOpt= -1 -1 -1 -1 -1 -1 -1 -1 -1 -1 -1 -1 -1 -1 -1 -1 -1 -1 -1 -1
 MicOpt= -1 -1 -1 -1 -1 -1 -1 -1 -1 -1 -1 -1 -1 -1 -1 -1 -1 -1 -1 -1
 MicOpt= -1 -1 -1 -1 -1 -1 -1 -1 -1 -1 -1 -1 -1 -1 -1 -1 -1
 NAtoms=     77 NQM=       77 NQMF=       0 NMMI=      0 NMMIF=      0
                NMic=       0 NMicF=      0.
                    Isotopes and Nuclear Properties:
 (Nuclear quadrupole moments (NQMom) in fm**2, nuclear magnetic moments (NMagM)
  in nuclear magnetons)

  Atom         1           2           3           4           5           6           7           8           9          10
 IAtWgt=          12          12          12          12          12          12           1           1           1           1
 AtmWgt=  12.0000000  12.0000000  12.0000000  12.0000000  12.0000000  12.0000000   1.0078250   1.0078250   1.0078250   1.0078250
 NucSpn=           0           0           0           0           0           0           1           1           1           1
 AtZEff=  -0.0000000  -0.0000000  -0.0000000  -0.0000000  -0.0000000  -0.0000000  -0.0000000  -0.0000000  -0.0000000  -0.0000000
 NQMom=    0.0000000   0.0000000   0.0000000   0.0000000   0.0000000   0.0000000   0.0000000   0.0000000   0.0000000   0.0000000
 NMagM=    0.0000000   0.0000000   0.0000000   0.0000000   0.0000000   0.0000000   2.7928460   2.7928460   2.7928460   2.7928460
 AtZNuc=   6.0000000   6.0000000   6.0000000   6.0000000   6.0000000   6.0000000   1.0000000   1.0000000   1.0000000   1.0000000

  Atom        11          12          13          14          15          16          17          18          19          20
 IAtWgt=           1           1           1           1           1           1          14          12          12          12
 AtmWgt=   1.0078250   1.0078250   1.0078250   1.0078250   1.0078250   1.0078250  14.0030740  12.0000000  12.0000000  12.0000000
 NucSpn=           1           1           1           1           1           1           2           0           0           0
 AtZEff=  -0.0000000  -0.0000000  -0.0000000  -0.0000000  -0.0000000  -0.0000000  -0.0000000  -0.0000000  -0.0000000  -0.0000000
 NQMom=    0.0000000   0.0000000   0.0000000   0.0000000   0.0000000   0.0000000   2.0440000   0.0000000   0.0000000   0.0000000
 NMagM=    2.7928460   2.7928460   2.7928460   2.7928460   2.7928460   2.7928460   0.4037610   0.0000000   0.0000000   0.0000000
 AtZNuc=   1.0000000   1.0000000   1.0000000   1.0000000   1.0000000   1.0000000   7.0000000   6.0000000   6.0000000   6.0000000

  Atom        21          22          23          24          25          26          27          28          29          30
 IAtWgt=           1          12           1          12           1           1          14          12           1           1
 AtmWgt=   1.0078250  12.0000000   1.0078250  12.0000000   1.0078250   1.0078250  14.0030740  12.0000000   1.0078250   1.0078250
 NucSpn=           1           0           1           0           1           1           2           0           1           1
 AtZEff=  -0.0000000  -0.0000000  -0.0000000  -0.0000000  -0.0000000  -0.0000000  -0.0000000  -0.0000000  -0.0000000  -0.0000000
 NQMom=    0.0000000   0.0000000   0.0000000   0.0000000   0.0000000   0.0000000   2.0440000   0.0000000   0.0000000   0.0000000
 NMagM=    2.7928460   0.0000000   2.7928460   0.0000000   2.7928460   2.7928460   0.4037610   0.0000000   2.7928460   2.7928460
 AtZNuc=   1.0000000   6.0000000   1.0000000   6.0000000   1.0000000   1.0000000   7.0000000   6.0000000   1.0000000   1.0000000

  Atom        31          32          33          34          35          36          37          38          39          40
 IAtWgt=          12           1           1          14          32          16          16          12          12          12
 AtmWgt=  12.0000000   1.0078250   1.0078250  14.0030740  31.9720718  15.9949146  15.9949146  12.0000000  12.0000000  12.0000000
 NucSpn=           0           1           1           2           0           0           0           0           0           0
 AtZEff=  -0.0000000  -0.0000000  -0.0000000  -0.0000000  -0.0000000  -0.0000000  -0.0000000  -0.0000000  -0.0000000  -0.0000000
 NQMom=    0.0000000   0.0000000   0.0000000   2.0440000   0.0000000   0.0000000   0.0000000   0.0000000   0.0000000   0.0000000
 NMagM=    0.0000000   2.7928460   2.7928460   0.4037610   0.0000000   0.0000000   0.0000000   0.0000000   0.0000000   0.0000000
 AtZNuc=   6.0000000   1.0000000   1.0000000   7.0000000  16.0000000   8.0000000   8.0000000   6.0000000   6.0000000   6.0000000

  Atom        41          42          43          44          45          46          47          48          49          50
 IAtWgt=          12          12          12           1           1           1           1           1          16           1
 AtmWgt=  12.0000000  12.0000000  12.0000000   1.0078250   1.0078250   1.0078250   1.0078250   1.0078250  15.9949146   1.0078250
 NucSpn=           0           0           0           1           1           1           1           1           0           1
 AtZEff=  -0.0000000  -0.0000000  -0.0000000  -0.0000000  -0.0000000  -0.0000000  -0.0000000  -0.0000000  -0.0000000  -0.0000000
 NQMom=    0.0000000   0.0000000   0.0000000   0.0000000   0.0000000   0.0000000   0.0000000   0.0000000   0.0000000   0.0000000
 NMagM=    0.0000000   0.0000000   0.0000000   2.7928460   2.7928460   2.7928460   2.7928460   2.7928460   0.0000000   2.7928460
 AtZNuc=   6.0000000   6.0000000   6.0000000   1.0000000   1.0000000   1.0000000   1.0000000   1.0000000   8.0000000   1.0000000

  Atom        51          52          53          54          55          56          57          58          59          60
 IAtWgt=          12          16          16           1          12           1           1          12           1           1
 AtmWgt=  12.0000000  15.9949146  15.9949146   1.0078250  12.0000000   1.0078250   1.0078250  12.0000000   1.0078250   1.0078250
 NucSpn=           0           0           0           1           0           1           1           0           1           1
 AtZEff=  -0.0000000  -0.0000000  -0.0000000  -0.0000000  -0.0000000  -0.0000000  -0.0000000  -0.0000000  -0.0000000  -0.0000000
 NQMom=    0.0000000   0.0000000   0.0000000   0.0000000   0.0000000   0.0000000   0.0000000   0.0000000   0.0000000   0.0000000
 NMagM=    0.0000000   0.0000000   0.0000000   2.7928460   0.0000000   2.7928460   2.7928460   0.0000000   2.7928460   2.7928460
 AtZNuc=   6.0000000   8.0000000   8.0000000   1.0000000   6.0000000   1.0000000   1.0000000   6.0000000   1.0000000   1.0000000

  Atom        61          62          63          64          65          66          67          68          69          70
 IAtWgt=          12           1           1           1          12           1           1          12           1           1
 AtmWgt=  12.0000000   1.0078250   1.0078250   1.0078250  12.0000000   1.0078250   1.0078250  12.0000000   1.0078250   1.0078250
 NucSpn=           0           1           1           1           0           1           1           0           1           1
 AtZEff=  -0.0000000  -0.0000000  -0.0000000  -0.0000000  -0.0000000  -0.0000000  -0.0000000  -0.0000000  -0.0000000  -0.0000000
 NQMom=    0.0000000   0.0000000   0.0000000   0.0000000   0.0000000   0.0000000   0.0000000   0.0000000   0.0000000   0.0000000
 NMagM=    0.0000000   2.7928460   2.7928460   2.7928460   0.0000000   2.7928460   2.7928460   0.0000000   2.7928460   2.7928460
 AtZNuc=   6.0000000   1.0000000   1.0000000   1.0000000   6.0000000   1.0000000   1.0000000   6.0000000   1.0000000   1.0000000

  Atom        71          72          73          74          75          76          77
 IAtWgt=           1          12           1           1          12           1           1
 AtmWgt=   1.0078250  12.0000000   1.0078250   1.0078250  12.0000000   1.0078250   1.0078250
 NucSpn=           1           0           1           1           0           1           1
 AtZEff=  -0.0000000  -0.0000000  -0.0000000  -0.0000000  -0.0000000  -0.0000000  -0.0000000
 NQMom=    0.0000000   0.0000000   0.0000000   0.0000000   0.0000000   0.0000000   0.0000000
 NMagM=    2.7928460   0.0000000   2.7928460   2.7928460   0.0000000   2.7928460   2.7928460
 AtZNuc=   1.0000000   6.0000000   1.0000000   1.0000000   6.0000000   1.0000000   1.0000000
 Leave Link  101 at Thu Feb  7 21:30:49 2019, MaxMem=   104857600 cpu:               4.9 elap:               0.2
 (Enter /home/xinyan/g16/l103.exe)

 GradGradGradGradGradGradGradGradGradGradGradGradGradGradGradGradGradGrad
 Berny optimization.
 Initialization pass.
 Trust Radius=3.00D-01 FncErr=1.00D-07 GrdErr=1.00D-07 EigMax=2.50D+02 EigMin=1.00D-04
 Number of steps in this run=      2 maximum allowed number of steps=      2.
 GradGradGradGradGradGradGradGradGradGradGradGradGradGradGradGradGradGrad

 Leave Link  103 at Thu Feb  7 21:30:49 2019, MaxMem=   104857600 cpu:               1.6 elap:               0.1
 (Enter /home/xinyan/g16/l202.exe)
 Stoichiometry    C27H41N3O5S
 Framework group  C1[X(C27H41N3O5S)]
 Deg. of freedom   225
 Full point group                 C1      NOp   1
 Largest Abelian subgroup         C1      NOp   1
 Largest concise Abelian subgroup C1      NOp   1
                         Standard orientation:                         
 ---------------------------------------------------------------------
 Center     Atomic      Atomic             Coordinates (Angstroms)
 Number     Number       Type             X           Y           Z
 ---------------------------------------------------------------------
      1          6           0       -4.860395    0.309678   -0.479865
      2          6           0       -4.982125   -0.971131   -1.310763
      3          6           0       -3.623604   -1.370533   -1.900630
      4          6           0       -2.627159   -1.562397   -0.761695
      5          6           0       -2.460907   -0.258392    0.068239
      6          6           0       -3.824896    0.156102    0.638194
      7          1           0       -3.704170   -2.283236   -2.501938
      8          1           0       -5.354455   -1.786135   -0.676443
      9          1           0       -5.707712   -0.838204   -2.120023
     10          1           0       -4.551002    1.133309   -1.138972
     11          1           0       -5.836123    0.582263   -0.063760
     12          1           0       -2.976825   -2.359294   -0.097839
     13          1           0       -2.186493    0.514228   -0.666547
     14          1           0       -4.156637   -0.587482    1.373169
     15          1           0       -3.686915    1.109399    1.162570
     16          1           0       -3.291625   -0.559548   -2.563494
     17          7           0       -1.274273   -1.976867   -1.206630
     18          6           0       -0.629837   -1.299200   -2.185688
     19          6           0       -0.544241   -2.743096   -0.361436
     20          6           0        0.725629   -1.353979   -2.342100
     21          1           0       -1.247866   -0.682875   -2.825764
     22          6           0        0.814948   -2.846167   -0.453282
     23          1           0       -1.099712   -3.234505    0.430216
     24          6           0        1.520532   -2.072118   -1.405463
     25          1           0        1.180097   -0.788524   -3.145135
     26          1           0        1.326261   -3.432060    0.297516
     27          7           0        2.859912   -2.003778   -1.403449
     28          6           0        3.625513   -2.498329   -0.250721
     29          1           0        3.542679   -3.585389   -0.166152
     30          1           0        3.231982   -2.036437    0.665590
     31          6           0        3.586097   -0.933752   -2.107975
     32          1           0        3.854652   -1.262207   -3.119045
     33          1           0        2.961985   -0.038186   -2.165129
     34          7           0       -1.341381   -0.310853    0.977299
     35         16           0       -1.345547   -1.204006    2.283341
     36          8           0       -2.434711   -2.203354    2.317404
     37          8           0        0.023150   -1.750534    2.487862
     38          6           0       -0.832461    2.800917   -0.099883
     39          6           0       -0.227110    2.137742   -1.175421
     40          6           0       -0.855671    2.118664   -2.419257
     41          6           0       -2.103196    2.719149   -2.596707
     42          6           0       -2.720023    3.350336   -1.519673
     43          6           0       -2.080917    3.390493   -0.283516
     44          1           0        0.712282    1.608648   -1.023121
     45          1           0       -0.371219    1.628228   -3.261244
     46          1           0       -2.592909    2.695325   -3.565638
     47          1           0       -3.696435    3.810608   -1.635565
     48          1           0       -2.557967    3.876357    0.564077
     49          8           0        0.298059    1.622039    1.692789
     50          1           0       -0.305405    0.896682    1.315366
     51          6           0        2.434690    0.576451    1.164266
     52          8           0        2.094771    0.169183    0.069683
     53          8           0        2.280728   -0.120379    2.285137
     54          1           0        1.544777   -0.779129    2.180431
     55          6           0        3.160253    1.885965    1.375100
     56          1           0        2.619338    2.423402    2.161078
     57          1           0        4.155963    1.662230    1.781138
     58          6           0       -0.180635    2.857663    1.264767
     59          1           0       -0.902748    3.278422    1.982642
     60          1           0        0.677892    3.546285    1.240743
     61          6           0       -1.564197   -0.078922    3.661601
     62          1           0       -0.771413    0.667625    3.571067
     63          1           0       -2.545581    0.392204    3.578698
     64          1           0       -1.474203   -0.633930    4.596175
     65          6           0        3.274199    2.725297    0.104908
     66          1           0        3.667298    2.105926   -0.709922
     67          1           0        2.275440    3.039415   -0.220032
     68          6           0        4.163809    3.949565    0.306116
     69          1           0        4.278207    4.518395   -0.621210
     70          1           0        3.746530    4.622604    1.062604
     71          1           0        5.162986    3.652775    0.643059
     72          6           0        5.048403   -2.030221   -0.540796
     73          1           0        5.643524   -1.946241    0.370807
     74          1           0        5.546321   -2.733075   -1.216390
     75          6           0        4.821845   -0.686504   -1.236799
     76          1           0        4.580193    0.076298   -0.491617
     77          1           0        5.680740   -0.344921   -1.818075
 ---------------------------------------------------------------------
 Rotational constants (GHZ):           0.1468484           0.0975916           0.0875125
 Leave Link  202 at Thu Feb  7 21:30:49 2019, MaxMem=   104857600 cpu:               2.4 elap:               0.1
 (Enter /home/xinyan/g16/l301.exe)
 Standard basis: 6-31G(d) (6D, 7F)
 Ernie: Thresh=  0.10000D-02 Tol=  0.10000D-05 Strict=F.
 There are   626 symmetry adapted cartesian basis functions of A   symmetry.
 There are   626 symmetry adapted basis functions of A   symmetry.
   626 basis functions,  1196 primitive gaussians,   626 cartesian basis functions
   140 alpha electrons      140 beta electrons
       nuclear repulsion energy      4915.1818067431 Hartrees.
 IExCor= 4336 DFT=T Ex+Corr=M062X ExCW=0 ScaHFX=  0.540000
 ScaDFX=  1.000000  1.000000  1.000000  1.000000 ScalE2=  1.000000  1.000000
 IRadAn=      5 IRanWt=     -1 IRanGd=            0 ICorTp=0 IEmpDi=131
 NAtoms=   77 NActive=   77 NUniq=   77 SFac= 1.00D+00 NAtFMM=   60 NAOKFM=T Big=T
 Integral buffers will be    131072 words long.
 Raffenetti 2 integral format.
 Two-electron integral symmetry is turned on.
 R6Disp:  Grimme-D3 Dispersion energy=       -0.0107112299 Hartrees.
 Nuclear repulsion after empirical dispersion term =     4915.1710955131 Hartrees.
 Leave Link  301 at Thu Feb  7 21:30:49 2019, MaxMem=   104857600 cpu:               3.0 elap:               0.2
 (Enter /home/xinyan/g16/l302.exe)
 NPDir=0 NMtPBC=     1 NCelOv=     1 NCel=       1 NClECP=     1 NCelD=      1
         NCelK=      1 NCelE2=     1 NClLst=     1 CellRange=     0.0.
 One-electron integrals computed using PRISM.
 One-electron integral symmetry used in STVInt
 PrsmSu:  requested number of processors reduced to:  23 ShMem   1 Linda.
 NBasis=   626 RedAO= T EigKep=  4.34D-04  NBF=   626
 NBsUse=   626 1.00D-06 EigRej= -1.00D+00 NBFU=   626
 Precomputing XC quadrature grid using
 IXCGrd= 4 IRadAn=           5 IRanWt=          -1 IRanGd=           0 AccXCQ= 0.00D+00.
 Generated NRdTot=       0 NPtTot=           0 NUsed=           0 NTot=          32
 NSgBfM=   614   612   614   614   614 MxSgAt=    77 MxSgA2=    77.
 Leave Link  302 at Thu Feb  7 21:30:53 2019, MaxMem=   104857600 cpu:              82.5 elap:               3.6
 (Enter /home/xinyan/g16/l303.exe)
 DipDrv:  MaxL=1.
 Leave Link  303 at Thu Feb  7 21:30:53 2019, MaxMem=   104857600 cpu:               5.6 elap:               0.3
 (Enter /home/xinyan/g16/l401.exe)
 ExpMin= 1.17D-01 ExpMax= 2.19D+04 ExpMxC= 3.30D+03 IAcc=3 IRadAn=         5 AccDes= 0.00D+00
 Harris functional with IExCor= 1009 and IRadAn=       5 diagonalized for initial guess.
 HarFok:  IExCor= 1009 AccDes= 0.00D+00 IRadAn=         5 IDoV= 1 UseB2=F ITyADJ=14
 ICtDFT=  3500011 ScaDFX=  1.000000  1.000000  1.000000  1.000000
 FoFCou: FMM=F IPFlag=           0 FMFlag=      100000 FMFlg1=        2001
         NFxFlg=           0 DoJE=T BraDBF=F KetDBF=T FulRan=T
         wScrn=  0.000000 ICntrl=       500 IOpCl=  0 I1Cent=   200000004 NGrid=           0
         NMat0=    1 NMatS0=      1 NMatT0=    0 NMatD0=    1 NMtDS0=    0 NMtDT0=    0
 Petite list used in FoFCou.
 Harris En= -1990.54088495081    
 JPrj=0 DoOrth=F DoCkMO=F.
 Leave Link  401 at Thu Feb  7 21:30:57 2019, MaxMem=   104857600 cpu:              98.8 elap:               4.2
 (Enter /home/xinyan/g16/l502.exe)
 Integral symmetry usage will be decided dynamically.
 Closed shell SCF:
 Using DIIS extrapolation, IDIIS=  1040.
 NGot=   104857600 LenX=   104051656 LenY=   103659154
 Requested convergence on RMS density matrix=1.00D-08 within 128 cycles.
 Requested convergence on MAX density matrix=1.00D-06.
 Requested convergence on             energy=1.00D-06.
 No special actions if energy rises.
 Fock matrices will be formed incrementally for  20 cycles.
 Integral accuracy reduced to 1.0D-05 until final iterations.

 Cycle   1  Pass 0  IDiag  1:
 FoFJK:  IHMeth= 1 ICntrl=       0 DoSepK=F KAlg= 0 I1Cent=           0 FoldK=F
 IRaf= 990000000 NMat=       1 IRICut=       1 DoRegI=T DoRafI=F ISym2E= 0 IDoP0=0 IntGTp=1.
 FoFCou: FMM=T IPFlag=           0 FMFlag=      100000 FMFlg1=        2001
         NFxFlg=           0 DoJE=F BraDBF=F KetDBF=F FulRan=T
         wScrn=  0.000000 ICntrl=         0 IOpCl=  0 I1Cent=           0 NGrid=           0
         NMat0=    1 NMatS0=      1 NMatT0=    0 NMatD0=    1 NMtDS0=    0 NMtDT0=    0
 Symmetry not used in FoFCou.
 FMM levels:  10  Number of levels for PrismC:   9
 E= -1990.34312481512    
 DIIS: error= 2.18D-02 at cycle   1 NSaved=   1.
 NSaved= 1 IEnMin= 1 EnMin= -1990.34312481512     IErMin= 1 ErrMin= 2.18D-02
 ErrMax= 2.18D-02  0.00D+00 EMaxC= 1.00D-01 BMatC= 1.22D+00 BMatP= 1.22D+00
 IDIUse=3 WtCom= 7.82D-01 WtEn= 2.18D-01
 Coeff-Com:  0.100D+01
 Coeff-En:   0.100D+01
 Coeff:      0.100D+01
 Gap=     0.368 Goal=   None    Shift=    0.000
 GapD=    0.368 DampG=1.000 DampE=0.500 DampFc=0.5000 IDamp=-1.
 Damping current iteration by 5.00D-01
 RMSDP=3.21D-03 MaxDP=3.20D-01              OVMax= 1.35D-01

 Cycle   2  Pass 0  IDiag  1:
 RMSU=  1.60D-03    CP:  9.87D-01
 E= -1990.85571426842     Delta-E=       -0.512589453298 Rises=F Damp=T
 DIIS: error= 9.09D-03 at cycle   2 NSaved=   2.
 NSaved= 2 IEnMin= 2 EnMin= -1990.85571426842     IErMin= 2 ErrMin= 9.09D-03
 ErrMax= 9.09D-03  0.00D+00 EMaxC= 1.00D-01 BMatC= 8.84D-02 BMatP= 1.22D+00
 IDIUse=3 WtCom= 9.09D-01 WtEn= 9.09D-02
 Coeff-Com: -0.434D-01 0.104D+01
 Coeff-En:   0.000D+00 0.100D+01
 Coeff:     -0.395D-01 0.104D+01
 Gap=     0.255 Goal=   None    Shift=    0.000
 RMSDP=7.81D-04 MaxDP=7.51D-02 DE=-5.13D-01 OVMax= 9.09D-02

 Cycle   3  Pass 0  IDiag  1:
 RMSU=  7.76D-04    CP:  9.81D-01  1.01D+00
 E= -1991.35072310909     Delta-E=       -0.495008840664 Rises=F Damp=F
 DIIS: error= 6.58D-03 at cycle   3 NSaved=   3.
 NSaved= 3 IEnMin= 3 EnMin= -1991.35072310909     IErMin= 3 ErrMin= 6.58D-03
 ErrMax= 6.58D-03  0.00D+00 EMaxC= 1.00D-01 BMatC= 3.77D-02 BMatP= 8.84D-02
 IDIUse=3 WtCom= 9.34D-01 WtEn= 6.58D-02
 Coeff-Com: -0.715D-01 0.409D+00 0.662D+00
 Coeff-En:   0.000D+00 0.000D+00 0.100D+01
 Coeff:     -0.668D-01 0.382D+00 0.685D+00
 Gap=     0.252 Goal=   None    Shift=    0.000
 RMSDP=4.27D-04 MaxDP=4.04D-02 DE=-4.95D-01 OVMax= 3.61D-02

 Cycle   4  Pass 0  IDiag  1:
 RMSU=  2.91D-04    CP:  9.83D-01  1.09D+00  6.33D-01
 E= -1991.37250484787     Delta-E=       -0.021781738785 Rises=F Damp=F
 DIIS: error= 3.55D-03 at cycle   4 NSaved=   4.
 NSaved= 4 IEnMin= 4 EnMin= -1991.37250484787     IErMin= 4 ErrMin= 3.55D-03
 ErrMax= 3.55D-03  0.00D+00 EMaxC= 1.00D-01 BMatC= 1.07D-02 BMatP= 3.77D-02
 IDIUse=3 WtCom= 9.64D-01 WtEn= 3.55D-02
 Coeff-Com: -0.266D-01 0.873D-01 0.375D+00 0.564D+00
 Coeff-En:   0.000D+00 0.000D+00 0.227D+00 0.773D+00
 Coeff:     -0.256D-01 0.842D-01 0.370D+00 0.571D+00
 Gap=     0.241 Goal=   None    Shift=    0.000
 RMSDP=1.82D-04 MaxDP=1.20D-02 DE=-2.18D-02 OVMax= 2.17D-02

 Cycle   5  Pass 0  IDiag  1:
 RMSU=  8.34D-05    CP:  9.82D-01  1.08D+00  7.49D-01  5.42D-01
 E= -1991.38107906220     Delta-E=       -0.008574214325 Rises=F Damp=F
 DIIS: error= 7.92D-04 at cycle   5 NSaved=   5.
 NSaved= 5 IEnMin= 5 EnMin= -1991.38107906220     IErMin= 5 ErrMin= 7.92D-04
 ErrMax= 7.92D-04  0.00D+00 EMaxC= 1.00D-01 BMatC= 5.75D-04 BMatP= 1.07D-02
 IDIUse=3 WtCom= 9.92D-01 WtEn= 7.92D-03
 Coeff-Com: -0.833D-02 0.199D-01 0.144D+00 0.287D+00 0.557D+00
 Coeff-En:   0.000D+00 0.000D+00 0.000D+00 0.000D+00 0.100D+01
 Coeff:     -0.827D-02 0.197D-01 0.143D+00 0.284D+00 0.561D+00
 Gap=     0.243 Goal=   None    Shift=    0.000
 RMSDP=4.84D-05 MaxDP=3.66D-03 DE=-8.57D-03 OVMax= 6.37D-03

 Cycle   6  Pass 0  IDiag  1:
 RMSU=  2.42D-05    CP:  9.82D-01  1.08D+00  7.51D-01  6.16D-01  5.70D-01
 E= -1991.38157279664     Delta-E=       -0.000493734446 Rises=F Damp=F
 DIIS: error= 2.23D-04 at cycle   6 NSaved=   6.
 NSaved= 6 IEnMin= 6 EnMin= -1991.38157279664     IErMin= 6 ErrMin= 2.23D-04
 ErrMax= 2.23D-04  0.00D+00 EMaxC= 1.00D-01 BMatC= 3.91D-05 BMatP= 5.75D-04
 IDIUse=3 WtCom= 9.98D-01 WtEn= 2.23D-03
 Coeff-Com: -0.129D-02 0.125D-02 0.311D-01 0.775D-01 0.263D+00 0.628D+00
 Coeff-En:   0.000D+00 0.000D+00 0.000D+00 0.000D+00 0.000D+00 0.100D+01
 Coeff:     -0.128D-02 0.125D-02 0.310D-01 0.774D-01 0.263D+00 0.629D+00
 Gap=     0.243 Goal=   None    Shift=    0.000
 RMSDP=1.25D-05 MaxDP=6.97D-04 DE=-4.94D-04 OVMax= 2.11D-03

 Cycle   7  Pass 0  IDiag  1:
 RMSU=  7.99D-06    CP:  9.82D-01  1.08D+00  7.54D-01  6.15D-01  6.43D-01
                    CP:  7.11D-01
 E= -1991.38161146063     Delta-E=       -0.000038663992 Rises=F Damp=F
 DIIS: error= 4.48D-05 at cycle   7 NSaved=   7.
 NSaved= 7 IEnMin= 7 EnMin= -1991.38161146063     IErMin= 7 ErrMin= 4.48D-05
 ErrMax= 4.48D-05  0.00D+00 EMaxC= 1.00D-01 BMatC= 3.04D-06 BMatP= 3.91D-05
 IDIUse=1 WtCom= 1.00D+00 WtEn= 0.00D+00
 Coeff-Com:  0.274D-03-0.143D-02-0.549D-03 0.629D-02 0.640D-01 0.270D+00
 Coeff-Com:  0.662D+00
 Coeff:      0.274D-03-0.143D-02-0.549D-03 0.629D-02 0.640D-01 0.270D+00
 Coeff:      0.662D+00
 Gap=     0.243 Goal=   None    Shift=    0.000
 RMSDP=4.19D-06 MaxDP=2.24D-04 DE=-3.87D-05 OVMax= 3.93D-04

 Initial convergence to 1.0D-05 achieved.  Increase integral accuracy.
 Cycle   8  Pass 1  IDiag  1:
 E= -1991.38164598824     Delta-E=       -0.000034527609 Rises=F Damp=F
 DIIS: error= 2.03D-04 at cycle   1 NSaved=   1.
 NSaved= 1 IEnMin= 1 EnMin= -1991.38164598824     IErMin= 1 ErrMin= 2.03D-04
 ErrMax= 2.03D-04  0.00D+00 EMaxC= 1.00D-01 BMatC= 1.26D-05 BMatP= 1.26D-05
 IDIUse=3 WtCom= 9.98D-01 WtEn= 2.03D-03
 Coeff-Com:  0.100D+01
 Coeff-En:   0.100D+01
 Coeff:      0.100D+01
 Gap=     0.243 Goal=   None    Shift=    0.000
 RMSDP=4.19D-06 MaxDP=2.24D-04 DE=-3.45D-05 OVMax= 6.23D-04

 Cycle   9  Pass 1  IDiag  1:
 RMSU=  7.09D-05    CP:  1.00D+00
 E= -1991.38165748380     Delta-E=       -0.000011495557 Rises=F Damp=F
 DIIS: error= 3.16D-05 at cycle   2 NSaved=   2.
 NSaved= 2 IEnMin= 2 EnMin= -1991.38165748380     IErMin= 2 ErrMin= 3.16D-05
 ErrMax= 3.16D-05  0.00D+00 EMaxC= 1.00D-01 BMatC= 8.52D-07 BMatP= 1.26D-05
 IDIUse=1 WtCom= 1.00D+00 WtEn= 0.00D+00
 Coeff-Com:  0.745D-01 0.925D+00
 Coeff:      0.745D-01 0.925D+00
 Gap=     0.243 Goal=   None    Shift=    0.000
 RMSDP=4.04D-06 MaxDP=2.57D-04 DE=-1.15D-05 OVMax= 4.96D-04

 Cycle  10  Pass 1  IDiag  1:
 RMSU=  3.52D-06    CP:  1.00D+00  1.03D+00
 E= -1991.38165697150     Delta-E=        0.000000512306 Rises=F Damp=F
 DIIS: error= 4.44D-05 at cycle   3 NSaved=   3.
 NSaved= 3 IEnMin= 2 EnMin= -1991.38165748380     IErMin= 2 ErrMin= 3.16D-05
 ErrMax= 4.44D-05  0.00D+00 EMaxC= 1.00D-01 BMatC= 1.44D-06 BMatP= 8.52D-07
 IDIUse=1 WtCom= 1.00D+00 WtEn= 0.00D+00
 Coeff-Com: -0.157D-01 0.572D+00 0.444D+00
 Coeff:     -0.157D-01 0.572D+00 0.444D+00
 Gap=     0.243 Goal=   None    Shift=    0.000
 RMSDP=1.97D-06 MaxDP=1.59D-04 DE= 5.12D-07 OVMax= 3.43D-04

 Cycle  11  Pass 1  IDiag  1:
 RMSU=  6.22D-07    CP:  1.00D+00  1.03D+00  4.77D-01
 E= -1991.38165823597     Delta-E=       -0.000001264472 Rises=F Damp=F
 DIIS: error= 4.29D-06 at cycle   4 NSaved=   4.
 NSaved= 4 IEnMin= 4 EnMin= -1991.38165823597     IErMin= 4 ErrMin= 4.29D-06
 ErrMax= 4.29D-06  0.00D+00 EMaxC= 1.00D-01 BMatC= 9.82D-09 BMatP= 8.52D-07
 IDIUse=1 WtCom= 1.00D+00 WtEn= 0.00D+00
 Coeff-Com: -0.825D-02 0.251D+00 0.209D+00 0.548D+00
 Coeff:     -0.825D-02 0.251D+00 0.209D+00 0.548D+00
 Gap=     0.243 Goal=   None    Shift=    0.000
 RMSDP=2.11D-07 MaxDP=1.08D-05 DE=-1.26D-06 OVMax= 2.17D-05

 Cycle  12  Pass 1  IDiag  1:
 RMSU=  1.92D-07    CP:  1.00D+00  1.03D+00  4.91D-01  8.88D-01
 E= -1991.38165824501     Delta-E=       -0.000000009047 Rises=F Damp=F
 DIIS: error= 1.21D-06 at cycle   5 NSaved=   5.
 NSaved= 5 IEnMin= 5 EnMin= -1991.38165824501     IErMin= 5 ErrMin= 1.21D-06
 ErrMax= 1.21D-06  0.00D+00 EMaxC= 1.00D-01 BMatC= 9.34D-10 BMatP= 9.82D-09
 IDIUse=1 WtCom= 1.00D+00 WtEn= 0.00D+00
 Coeff-Com: -0.522D-03-0.102D-02 0.942D-02 0.210D+00 0.782D+00
 Coeff:     -0.522D-03-0.102D-02 0.942D-02 0.210D+00 0.782D+00
 Gap=     0.243 Goal=   None    Shift=    0.000
 RMSDP=8.81D-08 MaxDP=3.96D-06 DE=-9.05D-09 OVMax= 1.35D-05

 Cycle  13  Pass 1  IDiag  1:
 RMSU=  6.59D-08    CP:  1.00D+00  1.03D+00  4.95D-01  9.68D-01  8.77D-01
 E= -1991.38165824587     Delta-E=       -0.000000000859 Rises=F Damp=F
 DIIS: error= 6.18D-07 at cycle   6 NSaved=   6.
 NSaved= 6 IEnMin= 6 EnMin= -1991.38165824587     IErMin= 6 ErrMin= 6.18D-07
 ErrMax= 6.18D-07  0.00D+00 EMaxC= 1.00D-01 BMatC= 2.60D-10 BMatP= 9.34D-10
 IDIUse=1 WtCom= 1.00D+00 WtEn= 0.00D+00
 Coeff-Com:  0.944D-03-0.378D-01-0.244D-01 0.321D-01 0.426D+00 0.603D+00
 Coeff:      0.944D-03-0.378D-01-0.244D-01 0.321D-01 0.426D+00 0.603D+00
 Gap=     0.243 Goal=   None    Shift=    0.000
 RMSDP=3.38D-08 MaxDP=2.86D-06 DE=-8.59D-10 OVMax= 3.93D-06

 Cycle  14  Pass 1  IDiag  1:
 RMSU=  2.42D-08    CP:  1.00D+00  1.03D+00  4.97D-01  9.85D-01  9.56D-01
                    CP:  8.25D-01
 E= -1991.38165824614     Delta-E=       -0.000000000270 Rises=F Damp=F
 DIIS: error= 1.94D-07 at cycle   7 NSaved=   7.
 NSaved= 7 IEnMin= 7 EnMin= -1991.38165824614     IErMin= 7 ErrMin= 1.94D-07
 ErrMax= 1.94D-07  0.00D+00 EMaxC= 1.00D-01 BMatC= 1.73D-11 BMatP= 2.60D-10
 IDIUse=1 WtCom= 1.00D+00 WtEn= 0.00D+00
 Coeff-Com:  0.425D-03-0.150D-01-0.988D-02-0.851D-02 0.945D-01 0.240D+00
 Coeff-Com:  0.698D+00
 Coeff:      0.425D-03-0.150D-01-0.988D-02-0.851D-02 0.945D-01 0.240D+00
 Coeff:      0.698D+00
 Gap=     0.243 Goal=   None    Shift=    0.000
 RMSDP=1.07D-08 MaxDP=7.19D-07 DE=-2.70D-10 OVMax= 1.41D-06

 Cycle  15  Pass 1  IDiag  1:
 RMSU=  8.29D-09    CP:  1.00D+00  1.03D+00  4.98D-01  9.88D-01  9.68D-01
                    CP:  9.03D-01  1.06D+00
 E= -1991.38165824612     Delta-E=        0.000000000018 Rises=F Damp=F
 DIIS: error= 5.47D-08 at cycle   8 NSaved=   8.
 NSaved= 8 IEnMin= 7 EnMin= -1991.38165824614     IErMin= 8 ErrMin= 5.47D-08
 ErrMax= 5.47D-08  0.00D+00 EMaxC= 1.00D-01 BMatC= 2.58D-12 BMatP= 1.73D-11
 IDIUse=1 WtCom= 1.00D+00 WtEn= 0.00D+00
 Coeff-Com: -0.304D-04 0.196D-02 0.153D-02-0.109D-01-0.520D-01-0.258D-01
 Coeff-Com:  0.272D+00 0.813D+00
 Coeff:     -0.304D-04 0.196D-02 0.153D-02-0.109D-01-0.520D-01-0.258D-01
 Coeff:      0.272D+00 0.813D+00
 Gap=     0.243 Goal=   None    Shift=    0.000
 RMSDP=4.76D-09 MaxDP=3.42D-07 DE= 1.82D-11 OVMax= 6.71D-07

 SCF Done:  E(RM062X) =  -1991.38165825     A.U. after   15 cycles
            NFock= 15  Conv=0.48D-08     -V/T= 2.0075
 KE= 1.976509375682D+03 PE=-1.448284098876D+04 EE= 5.599778859320D+03
 Leave Link  502 at Thu Feb  7 21:33:35 2019, MaxMem=   104857600 cpu:            3779.4 elap:             157.8
 (Enter /home/xinyan/g16/l601.exe)
 Copying SCF densities to generalized density rwf, IOpCl= 0 IROHF=0.

 **********************************************************************

            Population analysis using the SCF density.

 **********************************************************************

 Orbital symmetries:
       Occupied  (A) (A) (A) (A) (A) (A) (A) (A) (A) (A) (A) (A)
                 (A) (A) (A) (A) (A) (A) (A) (A) (A) (A) (A) (A)
                 (A) (A) (A) (A) (A) (A) (A) (A) (A) (A) (A) (A)
                 (A) (A) (A) (A) (A) (A) (A) (A) (A) (A) (A) (A)
                 (A) (A) (A) (A) (A) (A) (A) (A) (A) (A) (A) (A)
                 (A) (A) (A) (A) (A) (A) (A) (A) (A) (A) (A) (A)
                 (A) (A) (A) (A) (A) (A) (A) (A) (A) (A) (A) (A)
                 (A) (A) (A) (A) (A) (A) (A) (A) (A) (A) (A) (A)
                 (A) (A) (A) (A) (A) (A) (A) (A) (A) (A) (A) (A)
                 (A) (A) (A) (A) (A) (A) (A) (A) (A) (A) (A) (A)
                 (A) (A) (A) (A) (A) (A) (A) (A) (A) (A) (A) (A)
                 (A) (A) (A) (A) (A) (A) (A) (A)
       Virtual   (A) (A) (A) (A) (A) (A) (A) (A) (A) (A) (A) (A)
                 (A) (A) (A) (A) (A) (A) (A) (A) (A) (A) (A) (A)
                 (A) (A) (A) (A) (A) (A) (A) (A) (A) (A) (A) (A)
                 (A) (A) (A) (A) (A) (A) (A) (A) (A) (A) (A) (A)
                 (A) (A) (A) (A) (A) (A) (A) (A) (A) (A) (A) (A)
                 (A) (A) (A) (A) (A) (A) (A) (A) (A) (A) (A) (A)
                 (A) (A) (A) (A) (A) (A) (A) (A) (A) (A) (A) (A)
                 (A) (A) (A) (A) (A) (A) (A) (A) (A) (A) (A) (A)
                 (A) (A) (A) (A) (A) (A) (A) (A) (A) (A) (A) (A)
                 (A) (A) (A) (A) (A) (A) (A) (A) (A) (A) (A) (A)
                 (A) (A) (A) (A) (A) (A) (A) (A) (A) (A) (A) (A)
                 (A) (A) (A) (A) (A) (A) (A) (A) (A) (A) (A) (A)
                 (A) (A) (A) (A) (A) (A) (A) (A) (A) (A) (A) (A)
                 (A) (A) (A) (A) (A) (A) (A) (A) (A) (A) (A) (A)
                 (A) (A) (A) (A) (A) (A) (A) (A) (A) (A) (A) (A)
                 (A) (A) (A) (A) (A) (A) (A) (A) (A) (A) (A) (A)
                 (A) (A) (A) (A) (A) (A) (A) (A) (A) (A) (A) (A)
                 (A) (A) (A) (A) (A) (A) (A) (A) (A) (A) (A) (A)
                 (A) (A) (A) (A) (A) (A) (A) (A) (A) (A) (A) (A)
                 (A) (A) (A) (A) (A) (A) (A) (A) (A) (A) (A) (A)
                 (A) (A) (A) (A) (A) (A) (A) (A) (A) (A) (A) (A)
                 (A) (A) (A) (A) (A) (A) (A) (A) (A) (A) (A) (A)
                 (A) (A) (A) (A) (A) (A) (A) (A) (A) (A) (A) (A)
                 (A) (A) (A) (A) (A) (A) (A) (A) (A) (A) (A) (A)
                 (A) (A) (A) (A) (A) (A) (A) (A) (A) (A) (A) (A)
                 (A) (A) (A) (A) (A) (A) (A) (A) (A) (A) (A) (A)
                 (A) (A) (A) (A) (A) (A) (A) (A) (A) (A) (A) (A)
                 (A) (A) (A) (A) (A) (A) (A) (A) (A) (A) (A) (A)
                 (A) (A) (A) (A) (A) (A) (A) (A) (A) (A) (A) (A)
                 (A) (A) (A) (A) (A) (A) (A) (A) (A) (A) (A) (A)
                 (A) (A) (A) (A) (A) (A) (A) (A) (A) (A) (A) (A)
                 (A) (A) (A) (A) (A) (A) (A) (A) (A) (A) (A) (A)
                 (A) (A) (A) (A) (A) (A) (A) (A) (A) (A) (A) (A)
                 (A) (A) (A) (A) (A) (A) (A) (A) (A) (A) (A) (A)
                 (A) (A) (A) (A) (A) (A) (A) (A) (A) (A) (A) (A)
                 (A) (A) (A) (A) (A) (A) (A) (A) (A) (A) (A) (A)
                 (A) (A) (A) (A) (A) (A) (A) (A) (A) (A) (A) (A)
                 (A) (A) (A) (A) (A) (A) (A) (A) (A) (A) (A) (A)
                 (A) (A) (A) (A) (A) (A) (A) (A) (A) (A) (A) (A)
                 (A) (A) (A) (A) (A) (A) (A) (A) (A) (A) (A) (A)
                 (A) (A) (A) (A) (A) (A)
 The electronic state is 1-A.
 Alpha  occ. eigenvalues --  -90.10220 -19.63657 -19.60238 -19.58621 -19.58286
 Alpha  occ. eigenvalues --  -19.58277 -14.84803 -14.80419 -14.69266 -10.65868
 Alpha  occ. eigenvalues --  -10.63220 -10.62444 -10.61633 -10.59266 -10.59065
 Alpha  occ. eigenvalues --  -10.58882 -10.57834 -10.57325 -10.56774 -10.56723
 Alpha  occ. eigenvalues --  -10.55929 -10.55690 -10.55636 -10.55104 -10.55034
 Alpha  occ. eigenvalues --  -10.54945 -10.54658 -10.54616 -10.54520 -10.54002
 Alpha  occ. eigenvalues --  -10.53602 -10.53578 -10.53537 -10.53287 -10.52939
 Alpha  occ. eigenvalues --  -10.52622  -8.41171  -6.33408  -6.33318  -6.33239
 Alpha  occ. eigenvalues --   -1.19346  -1.17672  -1.12928  -1.10129  -1.10017
 Alpha  occ. eigenvalues --   -1.09061  -1.05973  -0.97560  -0.95384  -0.94737
 Alpha  occ. eigenvalues --   -0.92194  -0.89818  -0.88565  -0.88399  -0.85110
 Alpha  occ. eigenvalues --   -0.84813  -0.83727  -0.83559  -0.83276  -0.79991
 Alpha  occ. eigenvalues --   -0.79445  -0.76311  -0.75607  -0.74649  -0.70955
 Alpha  occ. eigenvalues --   -0.70291  -0.69385  -0.68657  -0.68350  -0.68117
 Alpha  occ. eigenvalues --   -0.66019  -0.64766  -0.63917  -0.63530  -0.61608
 Alpha  occ. eigenvalues --   -0.60288  -0.59377  -0.59129  -0.58362  -0.56171
 Alpha  occ. eigenvalues --   -0.55753  -0.55330  -0.55174  -0.54508  -0.53922
 Alpha  occ. eigenvalues --   -0.53477  -0.53054  -0.52651  -0.51825  -0.51637
 Alpha  occ. eigenvalues --   -0.51063  -0.50943  -0.50628  -0.50001  -0.49842
 Alpha  occ. eigenvalues --   -0.49754  -0.49520  -0.48765  -0.48314  -0.48046
 Alpha  occ. eigenvalues --   -0.47717  -0.47259  -0.47095  -0.47001  -0.45792
 Alpha  occ. eigenvalues --   -0.45508  -0.45157  -0.43978  -0.43739  -0.43489
 Alpha  occ. eigenvalues --   -0.43074  -0.42840  -0.42142  -0.42015  -0.41807
 Alpha  occ. eigenvalues --   -0.41237  -0.40934  -0.40516  -0.39895  -0.39667
 Alpha  occ. eigenvalues --   -0.39414  -0.39370  -0.39145  -0.38400  -0.38114
 Alpha  occ. eigenvalues --   -0.37422  -0.36302  -0.35834  -0.35328  -0.35170
 Alpha  occ. eigenvalues --   -0.34217  -0.32957  -0.31959  -0.31700  -0.31189
 Alpha  occ. eigenvalues --   -0.29985  -0.28770  -0.28343  -0.27287  -0.25346
 Alpha virt. eigenvalues --   -0.01081   0.00683   0.03096   0.03666   0.08789
 Alpha virt. eigenvalues --    0.10150   0.10972   0.11773   0.12968   0.13484
 Alpha virt. eigenvalues --    0.13753   0.14315   0.14998   0.15441   0.15868
 Alpha virt. eigenvalues --    0.16142   0.16371   0.17321   0.17464   0.17998
 Alpha virt. eigenvalues --    0.18250   0.18457   0.18639   0.18994   0.19253
 Alpha virt. eigenvalues --    0.19353   0.19668   0.19957   0.20346   0.20552
 Alpha virt. eigenvalues --    0.20759   0.21040   0.21285   0.21639   0.21870
 Alpha virt. eigenvalues --    0.22152   0.22511   0.22872   0.22980   0.23211
 Alpha virt. eigenvalues --    0.23575   0.23953   0.24096   0.24391   0.24543
 Alpha virt. eigenvalues --    0.24844   0.25214   0.25232   0.26008   0.26503
 Alpha virt. eigenvalues --    0.27059   0.27465   0.27575   0.28215   0.28508
 Alpha virt. eigenvalues --    0.28705   0.29302   0.29746   0.30427   0.30482
 Alpha virt. eigenvalues --    0.30775   0.31175   0.31787   0.32092   0.32574
 Alpha virt. eigenvalues --    0.33210   0.33724   0.34592   0.35045   0.35391
 Alpha virt. eigenvalues --    0.35833   0.36682   0.37338   0.37724   0.38458
 Alpha virt. eigenvalues --    0.39804   0.40178   0.41182   0.42176   0.43085
 Alpha virt. eigenvalues --    0.45078   0.47284   0.47611   0.48520   0.49968
 Alpha virt. eigenvalues --    0.50845   0.52119   0.53289   0.53610   0.55248
 Alpha virt. eigenvalues --    0.55753   0.56164   0.56746   0.56849   0.57849
 Alpha virt. eigenvalues --    0.58248   0.59036   0.59119   0.59190   0.59433
 Alpha virt. eigenvalues --    0.59678   0.60456   0.60737   0.60960   0.61190
 Alpha virt. eigenvalues --    0.61489   0.61695   0.61845   0.62527   0.62832
 Alpha virt. eigenvalues --    0.63586   0.63864   0.64225   0.64666   0.65321
 Alpha virt. eigenvalues --    0.66106   0.66113   0.67037   0.67430   0.67613
 Alpha virt. eigenvalues --    0.67803   0.68496   0.69132   0.69400   0.70227
 Alpha virt. eigenvalues --    0.70814   0.71507   0.71855   0.72021   0.72901
 Alpha virt. eigenvalues --    0.73374   0.73584   0.74222   0.74644   0.75129
 Alpha virt. eigenvalues --    0.75497   0.76067   0.76533   0.76922   0.77695
 Alpha virt. eigenvalues --    0.78385   0.78963   0.79816   0.80189   0.81307
 Alpha virt. eigenvalues --    0.81400   0.82036   0.82585   0.83077   0.83897
 Alpha virt. eigenvalues --    0.84916   0.85278   0.85437   0.85932   0.86660
 Alpha virt. eigenvalues --    0.87069   0.87401   0.88095   0.88875   0.89139
 Alpha virt. eigenvalues --    0.89666   0.89792   0.90544   0.90843   0.91152
 Alpha virt. eigenvalues --    0.91439   0.91726   0.92142   0.92814   0.93110
 Alpha virt. eigenvalues --    0.93174   0.93531   0.94148   0.94425   0.95168
 Alpha virt. eigenvalues --    0.95474   0.95697   0.96190   0.96496   0.96843
 Alpha virt. eigenvalues --    0.97129   0.97237   0.97369   0.97812   0.98262
 Alpha virt. eigenvalues --    0.98844   0.99096   0.99216   0.99502   0.99903
 Alpha virt. eigenvalues --    1.00129   1.00601   1.01433   1.01683   1.01903
 Alpha virt. eigenvalues --    1.02554   1.03221   1.03783   1.04294   1.04992
 Alpha virt. eigenvalues --    1.05163   1.05930   1.06375   1.06585   1.07492
 Alpha virt. eigenvalues --    1.08311   1.08981   1.09966   1.10436   1.11478
 Alpha virt. eigenvalues --    1.11755   1.12579   1.12769   1.13153   1.14567
 Alpha virt. eigenvalues --    1.14984   1.15727   1.16998   1.17410   1.18426
 Alpha virt. eigenvalues --    1.18707   1.19735   1.19886   1.21054   1.21716
 Alpha virt. eigenvalues --    1.22436   1.23365   1.24385   1.25107   1.25333
 Alpha virt. eigenvalues --    1.26571   1.26797   1.27351   1.27728   1.29167
 Alpha virt. eigenvalues --    1.29749   1.30242   1.31407   1.32571   1.33066
 Alpha virt. eigenvalues --    1.33453   1.34403   1.35626   1.36048   1.36755
 Alpha virt. eigenvalues --    1.37430   1.38682   1.39546   1.40986   1.41263
 Alpha virt. eigenvalues --    1.42055   1.43298   1.43852   1.44162   1.45287
 Alpha virt. eigenvalues --    1.45991   1.46783   1.48091   1.49148   1.49582
 Alpha virt. eigenvalues --    1.50221   1.50785   1.51076   1.52114   1.52872
 Alpha virt. eigenvalues --    1.53045   1.53666   1.54060   1.55200   1.55317
 Alpha virt. eigenvalues --    1.55934   1.56878   1.57722   1.58338   1.59265
 Alpha virt. eigenvalues --    1.60777   1.61587   1.62556   1.63035   1.64047
 Alpha virt. eigenvalues --    1.67236   1.67826   1.69735   1.70282   1.71245
 Alpha virt. eigenvalues --    1.72978   1.73584   1.75295   1.76361   1.77399
 Alpha virt. eigenvalues --    1.77670   1.78285   1.79910   1.80735   1.81175
 Alpha virt. eigenvalues --    1.82033   1.83165   1.84059   1.84421   1.84897
 Alpha virt. eigenvalues --    1.86313   1.86776   1.87018   1.87686   1.88366
 Alpha virt. eigenvalues --    1.89136   1.89992   1.90305   1.91028   1.91514
 Alpha virt. eigenvalues --    1.91932   1.92108   1.92665   1.92887   1.93399
 Alpha virt. eigenvalues --    1.93672   1.94775   1.95191   1.95782   1.96199
 Alpha virt. eigenvalues --    1.97528   1.97778   1.98583   1.99044   1.99340
 Alpha virt. eigenvalues --    1.99843   2.00590   2.01719   2.02148   2.02716
 Alpha virt. eigenvalues --    2.03491   2.03888   2.04168   2.04946   2.05739
 Alpha virt. eigenvalues --    2.06083   2.06577   2.07075   2.07634   2.08388
 Alpha virt. eigenvalues --    2.09432   2.09709   2.10234   2.10442   2.11456
 Alpha virt. eigenvalues --    2.11719   2.12427   2.13300   2.13525   2.14179
 Alpha virt. eigenvalues --    2.15017   2.15856   2.16432   2.17429   2.18346
 Alpha virt. eigenvalues --    2.19245   2.19583   2.20163   2.20978   2.21659
 Alpha virt. eigenvalues --    2.22383   2.23114   2.23213   2.24201   2.24535
 Alpha virt. eigenvalues --    2.25006   2.25349   2.26498   2.27421   2.28607
 Alpha virt. eigenvalues --    2.29324   2.29736   2.30412   2.31327   2.31897
 Alpha virt. eigenvalues --    2.32537   2.33553   2.34246   2.34968   2.35189
 Alpha virt. eigenvalues --    2.36040   2.36415   2.37150   2.37790   2.38251
 Alpha virt. eigenvalues --    2.39361   2.39990   2.40451   2.41144   2.41662
 Alpha virt. eigenvalues --    2.42792   2.43912   2.44381   2.45342   2.46538
 Alpha virt. eigenvalues --    2.48678   2.49649   2.51566   2.51755   2.51888
 Alpha virt. eigenvalues --    2.53036   2.53845   2.56056   2.56309   2.57209
 Alpha virt. eigenvalues --    2.59665   2.60401   2.61681   2.62555   2.63466
 Alpha virt. eigenvalues --    2.63839   2.65156   2.66149   2.66865   2.68093
 Alpha virt. eigenvalues --    2.68430   2.68791   2.69804   2.70976   2.71656
 Alpha virt. eigenvalues --    2.72756   2.73992   2.74141   2.76329   2.76836
 Alpha virt. eigenvalues --    2.78066   2.78859   2.79465   2.79817   2.80504
 Alpha virt. eigenvalues --    2.83142   2.83930   2.86641   2.87655   2.89108
 Alpha virt. eigenvalues --    2.92745   2.93803   2.93957   2.95168   2.96440
 Alpha virt. eigenvalues --    2.99672   3.00459   3.01825   3.02518   3.10261
 Alpha virt. eigenvalues --    3.17406   3.21270   3.23448   3.42296   3.43040
 Alpha virt. eigenvalues --    3.97756   4.05704   4.07393   4.11224   4.12259
 Alpha virt. eigenvalues --    4.14587   4.16111   4.17585   4.18214   4.19757
 Alpha virt. eigenvalues --    4.21910   4.24278   4.24766   4.26376   4.26647
 Alpha virt. eigenvalues --    4.31281   4.32175   4.33974   4.34930   4.36733
 Alpha virt. eigenvalues --    4.37071   4.38988   4.39981   4.41887   4.46121
 Alpha virt. eigenvalues --    4.47689   4.48683   4.54942   4.58924   4.59549
 Alpha virt. eigenvalues --    4.62372   4.64610   4.66690   4.75270   4.75994
 Alpha virt. eigenvalues --    4.78664
          Condensed to atoms (all electrons):
 Mulliken charges:
               1
     1  C   -0.303837
     2  C   -0.304473
     3  C   -0.309859
     4  C   -0.070865
     5  C    0.069510
     6  C   -0.304798
     7  H    0.167168
     8  H    0.161574
     9  H    0.159336
    10  H    0.144666
    11  H    0.157199
    12  H    0.208485
    13  H    0.140086
    14  H    0.182259
    15  H    0.150064
    16  H    0.149807
    17  N   -0.424459
    18  C    0.097001
    19  C    0.093374
    20  C   -0.226423
    21  H    0.204488
    22  C   -0.227788
    23  H    0.258392
    24  C    0.426160
    25  H    0.187395
    26  H    0.207937
    27  N   -0.526062
    28  C   -0.159295
    29  H    0.178106
    30  H    0.197894
    31  C   -0.145361
    32  H    0.169538
    33  H    0.193677
    34  N   -0.772453
    35  S    1.244868
    36  O   -0.636505
    37  O   -0.667574
    38  C    0.052352
    39  C   -0.176840
    40  C   -0.188836
    41  C   -0.169532
    42  C   -0.160362
    43  C   -0.199953
    44  H    0.203729
    45  H    0.139987
    46  H    0.157368
    47  H    0.162565
    48  H    0.158851
    49  O   -0.717940
    50  H    0.486490
    51  C    0.666892
    52  O   -0.519835
    53  O   -0.646799
    54  H    0.481733
    55  C   -0.375264
    56  H    0.202082
    57  H    0.167690
    58  C   -0.062860
    59  H    0.126175
    60  H    0.142409
    61  C   -0.665356
    62  H    0.232242
    63  H    0.184711
    64  H    0.205373
    65  C   -0.291446
    66  H    0.147334
    67  H    0.162364
    68  C   -0.480652
    69  H    0.160015
    70  H    0.158949
    71  H    0.152251
    72  C   -0.335723
    73  H    0.184221
    74  H    0.169500
    75  C   -0.335436
    76  H    0.179690
    77  H    0.172630
 Sum of Mulliken charges =  -0.00000
 Mulliken charges with hydrogens summed into heavy atoms:
               1
     1  C   -0.001973
     2  C    0.016437
     3  C    0.007116
     4  C    0.137620
     5  C    0.209596
     6  C    0.027525
    17  N   -0.424459
    18  C    0.301489
    19  C    0.351766
    20  C   -0.039027
    22  C   -0.019851
    24  C    0.426160
    27  N   -0.526062
    28  C    0.216705
    31  C    0.217853
    34  N   -0.772453
    35  S    1.244868
    36  O   -0.636505
    37  O   -0.667574
    38  C    0.052352
    39  C    0.026890
    40  C   -0.048849
    41  C   -0.012164
    42  C    0.002203
    43  C   -0.041102
    49  O   -0.231451
    51  C    0.666892
    52  O   -0.519835
    53  O   -0.165067
    55  C   -0.005492
    58  C    0.205724
    61  C   -0.043030
    65  C    0.018252
    68  C   -0.009436
    72  C    0.017999
    75  C    0.016883
 Electronic spatial extent (au):  <R**2>=          14875.1349
 Charge=             -0.0000 electrons
 Dipole moment (field-independent basis, Debye):
    X=              1.7009    Y=              0.1811    Z=             -6.7881  Tot=              7.0003
 Quadrupole moment (field-independent basis, Debye-Ang):
   XX=           -200.3898   YY=           -222.5054   ZZ=           -222.9686
   XY=            -11.6041   XZ=              1.1318   YZ=             13.2011
 Traceless Quadrupole moment (field-independent basis, Debye-Ang):
   XX=             14.8981   YY=             -7.2175   ZZ=             -7.6806
   XY=            -11.6041   XZ=              1.1318   YZ=             13.2011
 Octapole moment (field-independent basis, Debye-Ang**2):
  XXX=             69.6816  YYY=            -32.5940  ZZZ=             -2.4324  XYY=             21.0282
  XXY=             -8.3701  XXZ=            -29.5555  XZZ=             -3.7467  YZZ=             23.6090
  YYZ=              9.1463  XYZ=            -17.0923
 Hexadecapole moment (field-independent basis, Debye-Ang**3):
 XXXX=          -9996.2870 YYYY=          -5690.1668 ZZZZ=          -3795.3336 XXXY=           -166.0674
 XXXZ=              4.3541 YYYX=            -96.6083 YYYZ=             74.4603 ZZZX=            -63.4546
 ZZZY=             15.6653 XXYY=          -2607.8280 XXZZ=          -2370.7005 YYZZ=          -1701.9880
 XXYZ=             55.6086 YYXZ=             64.7429 ZZXY=            -51.3519
 N-N= 4.915171095513D+03 E-N=-1.448284095191D+04  KE= 1.976509375682D+03
 No NMR shielding tensors so no spin-rotation constants.
 Leave Link  601 at Thu Feb  7 21:33:36 2019, MaxMem=   104857600 cpu:              20.2 elap:               1.0
 (Enter /home/xinyan/g16/l701.exe)
 ... and contract with generalized density number  0.
 Compute integral first derivatives.
 R6Disp: Adding Grimme-D3 dispersion energy 1st derivatives to the gradient.
 Leave Link  701 at Thu Feb  7 21:33:37 2019, MaxMem=   104857600 cpu:              14.3 elap:               0.6
 (Enter /home/xinyan/g16/l702.exe)
 L702 exits ... SP integral derivatives will be done elsewhere.
 Leave Link  702 at Thu Feb  7 21:33:37 2019, MaxMem=   104857600 cpu:               1.4 elap:               0.1
 (Enter /home/xinyan/g16/l703.exe)
 Integral derivatives from FoFJK, PRISM(SPDF).
 Compute integral first derivatives, UseDBF=F ICtDFT=           0.
 Calling FoFJK, ICntrl=      2127 FMM=T ISym2X=0 I1Cent= 0 IOpClX= 0 NMat=1 NMatS=1 NMatT=0.
 FoFJK:  IHMeth= 1 ICntrl=    2127 DoSepK=F KAlg= 0 I1Cent=           0 FoldK=F
 IRaf=         0 NMat=       1 IRICut=       1 DoRegI=T DoRafI=F ISym2E= 0 IDoP0=0 IntGTp=1.
 FoFCou: FMM=T IPFlag=           0 FMFlag=      100000 FMFlg1=        2001
         NFxFlg=           0 DoJE=F BraDBF=F KetDBF=F FulRan=T
         wScrn=  0.000000 ICntrl=      2127 IOpCl=  0 I1Cent=           0 NGrid=           0
         NMat0=    1 NMatS0=      1 NMatT0=    0 NMatD0=    1 NMtDS0=    0 NMtDT0=    0
 Symmetry not used in FoFCou.
 FMM levels:  10  Number of levels for PrismC:   9
 Leave Link  703 at Thu Feb  7 21:34:11 2019, MaxMem=   104857600 cpu:             788.7 elap:              33.8
 (Enter /home/xinyan/g16/l716.exe)
 Dipole        = 6.69193699D-01 7.12490614D-02-2.67066082D+00
 ***** Axes restored to original set *****
 -------------------------------------------------------------------
 Center     Atomic                   Forces (Hartrees/Bohr)
 Number     Number              X              Y              Z
 -------------------------------------------------------------------
      1        6           0.000005202   -0.000169199    0.000107961
      2        6           0.000095323   -0.000097953    0.000139021
      3        6           0.000064019   -0.000027387    0.000112524
      4        6           0.000067951    0.000086084    0.000162262
      5        6           0.000080639    0.000190705    0.000040165
      6        6           0.000019020   -0.000049978    0.000166935
      7        1           0.000106001   -0.000045626    0.000158902
      8        1          -0.000016965   -0.000108735    0.000017366
      9        1           0.000072172   -0.000040331    0.000068021
     10        1          -0.000047900   -0.000081143    0.000186565
     11        1          -0.000018257   -0.000168655    0.000168440
     12        1           0.000103596    0.000111783    0.000104028
     13        1          -0.000159933    0.000116257    0.000024640
     14        1           0.000123146   -0.000246110    0.000043943
     15        1          -0.000128028   -0.000144118    0.000255456
     16        1           0.000009487   -0.000019897    0.000101922
     17        7           0.000087791    0.000006351    0.000105643
     18        6           0.000002701   -0.000043475    0.000016190
     19        6           0.000069618    0.000020614    0.000065179
     20        6           0.000021776   -0.000087522   -0.000061513
     21        1          -0.000015350   -0.000073979    0.000018084
     22        6           0.000063770   -0.000040046    0.000019088
     23        1           0.000096339    0.000124354    0.000171549
     24        6           0.000038031   -0.000118540   -0.000072940
     25        1          -0.000035540   -0.000129669   -0.000098475
     26        1           0.000091363   -0.000001012    0.000011682
     27        7           0.000029140   -0.000139194   -0.000158476
     28        6           0.000069252   -0.000335398   -0.000252367
     29        1           0.000089697   -0.000344735   -0.000449284
     30        1           0.000078002   -0.000514355   -0.000192202
     31        6           0.000062619   -0.000238578   -0.000229082
     32        1          -0.000023598   -0.000282646   -0.000221268
     33        1           0.000093675   -0.000199373   -0.000218163
     34        7           0.000376040    0.000647225    0.000017312
     35       16           0.000503473    0.000248626   -0.000278091
     36        8           0.000818321   -0.000383353   -0.000642964
     37        8           0.000563498    0.000548666   -0.000212634
     38        6          -0.000596684    0.000613031   -0.000009984
     39        6          -0.000315780    0.000437401    0.000269407
     40        6          -0.000047534    0.000107750    0.000173577
     41        6          -0.000028678    0.000011160   -0.000257866
     42        6          -0.000352239    0.000135011   -0.000492323
     43        6          -0.000588186    0.000391723   -0.000347516
     44        1          -0.000306484    0.000464377    0.000607297
     45        1           0.000196404   -0.000027066    0.000382812
     46        1           0.000241186   -0.000151534   -0.000377206
     47        1          -0.000351529    0.000020822   -0.000824165
     48        1          -0.000882134    0.000535774   -0.000551458
     49        8           0.000102844    0.001366181    0.000177257
     50        1           0.000590875    0.001366007    0.000653166
     51        6           0.000840305    0.000105077    0.001410086
     52        8          -0.000484246   -0.000424993   -0.001070653
     53        8          -0.000060669   -0.000168002    0.000158470
     54        1           0.000003799   -0.000172170    0.000063650
     55        6           0.000571078   -0.000418293    0.000219858
     56        1           0.000593156   -0.000451309    0.000301375
     57        1           0.000576690   -0.000537165    0.000131772
     58        6          -0.000572084    0.001240412    0.000062229
     59        1          -0.000852256    0.000997336   -0.000057301
     60        1          -0.001013374    0.001783528   -0.000135028
     61        6          -0.000330397   -0.000386417    0.000030668
     62        1          -0.000583910   -0.000013275    0.000611437
     63        1          -0.000499644   -0.000727215   -0.000110153
     64        1          -0.000464097   -0.000696411   -0.000156827
     65        6           0.000313738   -0.000423766    0.000260166
     66        1           0.000473820   -0.000296136    0.000227148
     67        1           0.000187970   -0.000749620    0.000385675
     68        6          -0.000025170   -0.000100327    0.000151708
     69        1          -0.000422421   -0.000019333    0.000152204
     70        1          -0.000134612   -0.000293819    0.000261497
     71        1           0.000163090    0.000248378   -0.000057764
     72        6           0.000070492   -0.000258551   -0.000219777
     73        1          -0.000008232   -0.000212027   -0.000170033
     74        1           0.000146726   -0.000302025   -0.000139078
     75        6           0.000092380   -0.000330860   -0.000263722
     76        1           0.000202098   -0.000221229   -0.000293484
     77        1           0.000097615   -0.000412087   -0.000352542
 -------------------------------------------------------------------
 Cartesian Forces:  Max     0.001783528 RMS     0.000385478
 Z-matrix is all fixed cartesians, so copy forces.
 Leave Link  716 at Thu Feb  7 21:34:11 2019, MaxMem=   104857600 cpu:               2.4 elap:               0.1
 (Enter /home/xinyan/g16/l103.exe)

 GradGradGradGradGradGradGradGradGradGradGradGradGradGradGradGradGradGrad
 Berny optimization.
 Search for a local minimum.
 Step number   1 out of a maximum of    2
 All quantities printed in internal units (Hartrees-Bohrs-Radians)
 Second derivative matrix not updated -- first step.
 ITU=  0
     Eigenvalues ---   -0.00000   0.00000   0.00000   0.00000   0.00000
     Eigenvalues ---    0.00000   0.00000   0.00000   0.00000   0.00000
     Eigenvalues ---    0.00000   0.00000   0.00013   0.00018   0.00035
     Eigenvalues ---    0.00063   0.00113   0.00133   0.00167   0.00168
     Eigenvalues ---    0.00200   0.00220   0.00276   0.00277   0.00387
     Eigenvalues ---    0.00434   0.00484   0.00498   0.00586   0.00598
     Eigenvalues ---    0.00669   0.00670   0.00791   0.00975   0.01151
     Eigenvalues ---    0.01200   0.01647   0.01686   0.01717   0.01842
     Eigenvalues ---    0.01885   0.02012   0.02227   0.02386   0.02447
     Eigenvalues ---    0.02532   0.02760   0.02793   0.03083   0.03340
     Eigenvalues ---    0.03522   0.03537   0.03556   0.03640   0.04068
     Eigenvalues ---    0.04110   0.04216   0.04312   0.04684   0.04773
     Eigenvalues ---    0.04856   0.04883   0.04995   0.05048   0.05093
     Eigenvalues ---    0.05100   0.05130   0.05150   0.05295   0.05347
     Eigenvalues ---    0.05500   0.05600   0.05667   0.05688   0.05746
     Eigenvalues ---    0.05757   0.05801   0.06132   0.06224   0.06460
     Eigenvalues ---    0.06505   0.06666   0.06847   0.06963   0.07064
     Eigenvalues ---    0.07101   0.07229   0.07239   0.07289   0.07337
     Eigenvalues ---    0.07551   0.07902   0.07937   0.08019   0.08129
     Eigenvalues ---    0.08164   0.08566   0.08586   0.09117   0.09681
     Eigenvalues ---    0.09762   0.10024   0.10115   0.10235   0.10838
     Eigenvalues ---    0.11195   0.11456   0.11481   0.11907   0.12163
     Eigenvalues ---    0.12715   0.12902   0.12995   0.13020   0.13268
     Eigenvalues ---    0.13721   0.13735   0.13896   0.14175   0.14354
     Eigenvalues ---    0.15826   0.16335   0.16613   0.16650   0.16859
     Eigenvalues ---    0.16898   0.17215   0.17313   0.17647   0.17722
     Eigenvalues ---    0.18672   0.18948   0.20233   0.20626   0.20638
     Eigenvalues ---    0.20766   0.21786   0.21995   0.23035   0.24705
     Eigenvalues ---    0.26437   0.27588   0.29704   0.29874   0.30170
     Eigenvalues ---    0.30293   0.31548   0.32375   0.34219   0.34666
     Eigenvalues ---    0.35029   0.36883   0.39303   0.41827   0.42331
     Eigenvalues ---    0.44130   0.44673   0.45000   0.48373   0.49188
     Eigenvalues ---    0.50297   0.56103   0.57600   0.59203   0.62525
     Eigenvalues ---    0.65004   0.65753   0.67938   0.68262   0.69144
     Eigenvalues ---    0.70604   0.75433   0.78290   0.78470   0.79506
     Eigenvalues ---    0.82204   0.82965   0.83949   0.85147   0.87054
     Eigenvalues ---    0.88920   0.89345   0.90339   0.91114   0.92373
     Eigenvalues ---    0.92439   0.93713   0.94213   0.94553   0.95530
     Eigenvalues ---    0.96140   0.97440   0.99492   0.99677   1.00247
     Eigenvalues ---    1.01305   1.02039   1.04061   1.04149   1.05419
     Eigenvalues ---    1.05946   1.06239   1.06474   1.07847   1.08876
     Eigenvalues ---    1.10096   1.14076   1.16018   1.18728   1.20362
     Eigenvalues ---    1.23625   1.24478   1.28195   1.36557   1.38512
     Eigenvalues ---    1.48291   1.53770   1.56529   1.59367   1.60535
     Eigenvalues ---    1.69547   1.75144   1.81281   2.13937   2.29594
 Eigenvalue     1 is  -1.11D-16 should be greater than     0.000000 Eigenvector:
                          Y46       Y45       Y41       Y47       Y40
   1                    0.19658   0.19658   0.19658   0.19658   0.19658
                          Y42       Y39       Y43       Y44       Y38
   1                    0.19658   0.19658   0.19658   0.19658   0.19658
 Eigenvalue     2 is   0.00D+00 Eigenvector:
                          X70       X56       X68       X71       X69
   1                    0.16749   0.16749   0.16749   0.16749   0.16749
                          X57       X55       X67       X65       X53
   1                    0.16749   0.16749   0.16749   0.16749   0.16749
 Eigenvalue     3 is   2.22D-16 Eigenvector:
                          Y66       Y69       Y67       Y52       Y65
   1                    0.17088   0.17088   0.17088   0.17088   0.17088
                          Y68       Y71       Y70       Y51       Y55
   1                    0.17088   0.17088   0.17088   0.17088   0.17088
 Eigenvalue     4 is   3.36D-09 Eigenvector:
                          Z44       Z49       Z50       Z45       Z60
   1                    0.24641   0.22996   0.22356   0.20154   0.19719
                          Z39       Z58       X59       Z40       Z69
   1                    0.19516   0.17966  -0.17503   0.16990  -0.16790
 Eigenvalue     5 is   6.58D-09 Eigenvector:
                          Z54       Z53       Z52       Z51       Z69
   1                    0.43740   0.34067   0.31059   0.25652  -0.24291
                          Z70       Y69       Y54       Y66       Y53
   1                   -0.23378  -0.19493   0.18877  -0.18820   0.17890
 Eigenvalue     6 is   8.01D-09 Eigenvector:
                          X45       X46       Z47       X40       X41
   1                    0.25977   0.25549  -0.24948   0.19248   0.19049
                          Z48       Z42       Y49       Z44       Y46
   1                   -0.17314  -0.16196   0.15554   0.15123  -0.14864
 Eigenvalue     7 is   2.62D-08 Eigenvector:
                          X54       X53       X69       X70       X68
   1                    0.41349   0.34839  -0.34337  -0.25590  -0.22354
                          Y71       Y54       X51       X52       X71
   1                    0.21188  -0.21182   0.20259   0.18127  -0.16533
 Eigenvalue     8 is   9.04D-08 Eigenvector:
                          Y46       Y45       Y59       Y49       X46
   1                    0.28620   0.23657  -0.23428  -0.21789   0.19939
                          Y41       Y60       Y58       Y50       X45
   1                    0.19311  -0.18458  -0.17635  -0.17605   0.16951
 Eigenvalue     9 is   1.08D-07 Eigenvector:
                          X50       X49       X59       Z47       X58
   1                    0.21090   0.20757   0.16861   0.15241   0.14754
                          Y73       Y77       Y74       X60       Y72
   1                    0.14101   0.12999   0.12888   0.12607   0.12336
 Eigenvalue    10 is   1.61D-07 Eigenvector:
                          Y47       Y44       Y48       X50       Y45
   1                    0.35569  -0.30432   0.29324  -0.28081  -0.25321
                          Y42       X48       X47       Y60       X44
   1                    0.20848   0.20756   0.19843  -0.18545  -0.17737
 Eigenvalue    11 is   2.00D-07 Eigenvector:
                          Y64       Y62       Y61       Y63       Y45
   1                    0.24816   0.20106   0.19955   0.18906   0.16126
                          Z76       Y37       Z77       Z60       Y7
   1                   -0.15116   0.14763  -0.14051   0.13944  -0.13735
 Eigenvalue    12 is   3.44D-06 Eigenvector:
                          X52       X66       X56       Z67       Z71
   1                    0.34081   0.33599  -0.31235  -0.30290   0.27025
                          X70       Z57       Y67       Y52       Y57
   1                   -0.26699   0.26058  -0.19452  -0.19382   0.18615
 Quadratic step=4.481D+01 exceeds max=3.000D-01 adjusted using Lamda=-1.756D-02.
 Angle between NR and scaled steps=  27.12 degrees.
 Angle between quadratic step and forces=  21.41 degrees.
 Linear search not attempted -- first point.
 B after Tr=     0.001338    0.001331   -0.000542
         Rot=    1.000000    0.000012   -0.000066   -0.000019 Ang=   0.01 deg.
 Variable       Old X    -DE/DX   Delta X   Delta X   Delta X     New X
                                 (Linear)    (Quad)   (Total)
    X1       -9.35770   0.00001   0.00000  -0.00208  -0.00084  -9.35854
    Y1        0.47572  -0.00017   0.00000  -0.00678  -0.00583   0.46989
    Z1       -0.64200   0.00011   0.00000   0.00784   0.00851  -0.63348
    X2       -9.66650   0.00010   0.00000   0.00160   0.00271  -9.66378
    Y2       -1.90980  -0.00010   0.00000  -0.00527  -0.00437  -1.91417
    Z2       -2.25151   0.00014   0.00000   0.00498   0.00576  -2.24576
    X3       -7.12274   0.00006   0.00000   0.00315   0.00415  -7.11859
    Y3       -2.73761  -0.00003   0.00000  -0.00201  -0.00104  -2.73864
    Z3       -3.36815   0.00011   0.00000   0.00628   0.00675  -3.36141
    X4       -5.26336   0.00007   0.00000   0.00440   0.00571  -5.25765
    Y4       -3.20091   0.00009   0.00000   0.00362   0.00472  -3.19620
    Z4       -1.21466   0.00016   0.00000   0.00646   0.00669  -1.20797
    X5       -4.86892   0.00008   0.00000   0.00159   0.00301  -4.86591
    Y5       -0.77456   0.00019   0.00000   0.00765   0.00880  -0.76576
    Z5        0.39406   0.00004   0.00000   0.00212   0.00224   0.39630
    X6       -7.42182   0.00002   0.00000  -0.00053   0.00100  -7.42082
    Y6        0.08271  -0.00005   0.00000  -0.00503  -0.00395   0.07876
    Z6        1.47350   0.00017   0.00000   0.00669   0.00712   1.48061
    X7       -7.33104   0.00011   0.00000   0.00594   0.00686  -7.32418
    Y7       -4.43766  -0.00005   0.00000  -0.00350  -0.00256  -4.44023
    Z7       -4.53245   0.00016   0.00000   0.00802   0.00854  -4.52391
    X8      -10.42963  -0.00002   0.00000   0.00084   0.00217 -10.42745
    Y8       -3.44272  -0.00011   0.00000  -0.00713  -0.00623  -3.44895
    Z8       -1.08032   0.00002   0.00000   0.00204   0.00295  -1.07737
    X9      -11.02107   0.00007   0.00000   0.00315   0.00405 -11.01702
    Y9       -1.58584  -0.00004   0.00000  -0.00414  -0.00333  -1.58917
    Z9       -3.78189   0.00007   0.00000   0.00382   0.00477  -3.77712
   X10       -8.71264  -0.00005   0.00000  -0.00479  -0.00378  -8.71641
   Y10        2.02991  -0.00008   0.00000  -0.00434  -0.00339   2.02651
   Z10       -1.86023   0.00019   0.00000   0.00956   0.01011  -1.85012
   X11      -11.18559  -0.00002   0.00000  -0.00279  -0.00147 -11.18706
   Y11        1.04354  -0.00017   0.00000  -0.01068  -0.00978   1.03376
   Z11        0.14530   0.00017   0.00000   0.00889   0.00980   0.15510
   X12       -5.98272   0.00010   0.00000   0.00538   0.00690  -5.97582
   Y12       -4.70205   0.00011   0.00000   0.00530   0.00640  -4.69566
   Z12        0.01306   0.00010   0.00000   0.00890   0.00926   0.02232
   X13       -4.29270  -0.00016   0.00000  -0.00889  -0.00771  -4.30041
   Y13        0.68792   0.00012   0.00000   0.00902   0.01016   0.69808
   Z13       -0.96896   0.00002   0.00000  -0.00055  -0.00055  -0.96950
   X14       -8.10436   0.00012   0.00000   0.00560   0.00737  -8.09699
   Y14       -1.32109  -0.00025   0.00000  -0.01206  -0.01098  -1.33207
   Z14        2.83733   0.00004   0.00000   0.00261   0.00317   2.84050
   X15       -7.10172  -0.00013   0.00000  -0.00706  -0.00546  -7.10718
   Y15        1.85787  -0.00014   0.00000  -0.00695  -0.00583   1.85203
   Z15        2.49408   0.00026   0.00000   0.01200   0.01234   2.50642
   X16       -6.43584   0.00001   0.00000   0.00051   0.00129  -6.43455
   Y16       -1.20871  -0.00002   0.00000  -0.00204  -0.00107  -1.20977
   Z16       -4.59370   0.00010   0.00000   0.00480   0.00513  -4.58856
   X17       -2.73247   0.00009   0.00000   0.00296   0.00418  -2.72828
   Y17       -4.06113   0.00001   0.00000   0.00104   0.00221  -4.05892
   Z17       -2.05795   0.00011   0.00000   0.00572   0.00564  -2.05231
   X18       -1.46178   0.00000   0.00000   0.00108   0.00202  -1.45976
   Y18       -2.79551  -0.00004   0.00000  -0.00318  -0.00200  -2.79751
   Z18       -3.88267   0.00002   0.00000   0.00169   0.00141  -3.88126
   X19       -1.41227   0.00007   0.00000   0.00320   0.00469  -1.40758
   Y19       -5.58233   0.00002   0.00000   0.00128   0.00254  -5.57979
   Z19       -0.47876   0.00007   0.00000   0.00565   0.00543  -0.47334
   X20        1.09568   0.00002   0.00000   0.00028   0.00119   1.09687
   Y20       -2.98533  -0.00009   0.00000  -0.00679  -0.00552  -2.99085
   Z20       -4.16993  -0.00006   0.00000  -0.00233  -0.00294  -4.17287
   X21       -2.58224  -0.00002   0.00000   0.00019   0.00092  -2.58132
   Y21       -1.57104  -0.00007   0.00000  -0.00398  -0.00288  -1.57392
   Z21       -5.07800   0.00002   0.00000   0.00167   0.00150  -5.07649
   X22        1.14844   0.00006   0.00000   0.00232   0.00381   1.15225
   Y22       -5.86552  -0.00004   0.00000  -0.00323  -0.00187  -5.86739
   Z22       -0.64545   0.00002   0.00000   0.00098   0.00043  -0.64503
   X23       -2.50088   0.00010   0.00000   0.00442   0.00615  -2.49474
   Y23       -6.49661   0.00012   0.00000   0.00531   0.00657  -6.49005
   Z23        0.99813   0.00017   0.00000   0.00905   0.00900   1.00713
   X24        2.54085   0.00004   0.00000   0.00108   0.00227   2.54312
   Y24       -4.42281  -0.00012   0.00000  -0.00783  -0.00646  -4.42927
   Z24       -2.41603  -0.00007   0.00000  -0.00373  -0.00450  -2.42053
   X25        1.99861  -0.00004   0.00000  -0.00105  -0.00039   1.99822
   Y25       -1.92410  -0.00013   0.00000  -0.00945  -0.00818  -1.93228
   Z25       -5.66684  -0.00010   0.00000  -0.00503  -0.00579  -5.67263
   X26        2.06848   0.00009   0.00000   0.00344   0.00516   2.07363
   Y26       -7.02867  -0.00000   0.00000  -0.00241  -0.00098  -7.02965
   Z26        0.75922   0.00001   0.00000   0.00090   0.00026   0.75947
   X27        5.07486   0.00003   0.00000   0.00110   0.00229   5.07715
   Y27       -4.38381  -0.00014   0.00000  -0.01297  -0.01150  -4.39531
   Z27       -2.40035  -0.00016   0.00000  -0.00883  -0.00993  -2.41028
   X28        6.47787   0.00007   0.00000   0.00294   0.00446   6.48232
   Y28       -5.40358  -0.00034   0.00000  -0.01926  -0.01768  -5.42126
   Z28       -0.23162  -0.00025   0.00000  -0.01303  -0.01429  -0.24592
   X29        6.24783   0.00009   0.00000   0.00348   0.00509   6.25292
   Y29       -7.45323  -0.00034   0.00000  -0.01978  -0.01821  -7.47144
   Z29       -0.10526  -0.00045   0.00000  -0.02031  -0.02149  -0.12675
   X30        5.75796   0.00008   0.00000   0.00332   0.00503   5.76299
   Y30       -4.53236  -0.00051   0.00000  -0.02585  -0.02426  -4.55661
   Z30        1.51078  -0.00019   0.00000  -0.00971  -0.01090   1.49988
   X31        6.52394   0.00006   0.00000   0.00256   0.00350   6.52744
   Y31       -2.39099  -0.00024   0.00000  -0.01549  -0.01399  -2.40499
   Z31       -3.69390  -0.00023   0.00000  -0.01082  -0.01216  -3.70607
   X32        7.01757  -0.00002   0.00000  -0.00086  -0.00014   7.01743
   Y32       -2.99901  -0.00028   0.00000  -0.01682  -0.01536  -3.01437
   Z32       -5.61224  -0.00022   0.00000  -0.01128  -0.01268  -5.62492
   X33        5.40583   0.00009   0.00000   0.00525   0.00611   5.41194
   Y33       -0.65626  -0.00020   0.00000  -0.01363  -0.01218  -0.66845
   Z33       -3.77943  -0.00022   0.00000  -0.01021  -0.01145  -3.79088
   X34       -2.76582   0.00038   0.00000   0.00563   0.00729  -2.75854
   Y34       -0.97602   0.00065   0.00000   0.02114   0.02242  -0.95361
   Z34        2.11833   0.00002   0.00000  -0.00079  -0.00095   2.11738
   X35       -2.84455   0.00050   0.00000   0.01948   0.02152  -2.82303
   Y35       -2.70134   0.00025   0.00000   0.00349   0.00482  -2.69652
   Z35        4.55906  -0.00028   0.00000  -0.01298  -0.01308   4.54598
   X36       -4.96875   0.00082   0.00000   0.04249   0.04460  -4.92415
   Y36       -4.51626  -0.00038   0.00000  -0.02376  -0.02251  -4.53877
   Z36        4.58527  -0.00064   0.00000  -0.03594  -0.03573   4.54954
   X37       -0.29810   0.00056   0.00000   0.03174   0.03387  -0.26423
   Y37       -3.83142   0.00055   0.00000   0.03187   0.03331  -3.79810
   Z37        4.93903  -0.00021   0.00000  -0.01103  -0.01145   4.92758
   X38       -1.58701  -0.00060   0.00000  -0.03081  -0.02964  -1.61665
   Y38        4.89794   0.00061   0.00000   0.03563   0.03691   4.93485
   Z38        0.18070  -0.00001   0.00000   0.00046   0.00001   0.18070
   X39       -0.47923  -0.00032   0.00000  -0.01661  -0.01566  -0.49490
   Y39        3.63717   0.00044   0.00000   0.02331   0.02457   3.66175
   Z39       -1.86709   0.00027   0.00000   0.01589   0.01532  -1.85176
   X40       -1.65712  -0.00005   0.00000  -0.00249  -0.00185  -1.65897
   Y40        3.68058   0.00011   0.00000   0.00475   0.00591   3.68650
   Z40       -4.22246   0.00017   0.00000   0.00866   0.00825  -4.21421
   X41       -3.97134  -0.00003   0.00000  -0.00282  -0.00227  -3.97361
   Y41        4.90359   0.00001   0.00000  -0.00202  -0.00095   4.90264
   Z41       -4.54876  -0.00026   0.00000  -0.01377  -0.01390  -4.56266
   X42       -5.10294  -0.00035   0.00000  -0.02008  -0.01931  -5.12225
   Y42        6.10468   0.00014   0.00000   0.00525   0.00632   6.11101
   Z42       -2.49920  -0.00049   0.00000  -0.02755  -0.02756  -2.52676
   X43       -3.90366  -0.00059   0.00000  -0.03470  -0.03362  -3.93729
   Y43        6.10060   0.00039   0.00000   0.02274   0.02392   6.12452
   Z43       -0.15762  -0.00035   0.00000  -0.01988  -0.02005  -0.17767
   X44        1.25807  -0.00031   0.00000  -0.01566  -0.01462   1.24344
   Y44        2.57042   0.00046   0.00000   0.02943   0.03077   2.60119
   Z44       -1.58841   0.00061   0.00000   0.03345   0.03268  -1.55573
   X45       -0.76804   0.00020   0.00000   0.01013   0.01060  -0.75744
   Y45        2.74713  -0.00003   0.00000  -0.00300  -0.00184   2.74530
   Z45       -5.82463   0.00038   0.00000   0.02026   0.01975  -5.80487
   X46       -4.88963   0.00024   0.00000   0.01049   0.01080  -4.87883
   Y46        4.92049  -0.00015   0.00000  -0.01277  -0.01178   4.90870
   Z46       -6.38383  -0.00038   0.00000  -0.02050  -0.02052  -6.40435
   X47       -6.91507  -0.00035   0.00000  -0.02122  -0.02052  -6.93559
   Y47        7.04288   0.00002   0.00000  -0.00090   0.00010   7.04298
   Z47       -2.71144  -0.00082   0.00000  -0.04498  -0.04479  -2.75622
   X48       -4.77912  -0.00088   0.00000  -0.04777  -0.04652  -4.82564
   Y48        7.02475   0.00054   0.00000   0.03011   0.03128   7.05604
   Z48        1.45505  -0.00055   0.00000  -0.03113  -0.03121   1.42384
   X49        0.45389   0.00010   0.00000   0.00272   0.00442   0.45831
   Y49        2.54231   0.00137   0.00000   0.08743   0.08886   2.63117
   Z49        3.54059   0.00018   0.00000   0.01859   0.01792   3.55851
   X50       -0.73123   0.00059   0.00000   0.02386   0.02552  -0.70571
   Y50        1.22445   0.00137   0.00000   0.06394   0.06531   1.28976
   Z50        2.80114   0.00065   0.00000   0.02834   0.02786   2.82900
   X51        4.42328   0.00084   0.00000   0.01300   0.01465   4.43793
   Y51        0.44019   0.00011   0.00000  -0.01746  -0.01589   0.42430
   Z51        2.52605   0.00141   0.00000   0.01265   0.01152   2.53757
   X52        3.76322  -0.00048   0.00000   0.00015   0.00156   3.76478
   Y52       -0.27327  -0.00042   0.00000  -0.00754  -0.00605  -0.27933
   Z52        0.44308  -0.00107   0.00000   0.01176   0.01073   0.45381
   X53        4.07638  -0.00006   0.00000   0.00426   0.00624   4.08262
   Y53       -0.89881  -0.00017   0.00000  -0.01772  -0.01612  -0.91493
   Z53        4.62174   0.00016   0.00000   0.01090   0.00984   4.63159
   X54        2.64324   0.00000   0.00000  -0.00296  -0.00096   2.64227
   Y54       -2.09015  -0.00017   0.00000  -0.00852  -0.00698  -2.09713
   Z54        4.39862   0.00006   0.00000   0.00804   0.00721   4.40583
   X55        5.87956   0.00057   0.00000   0.02592   0.02754   5.90710
   Y55        2.85789  -0.00042   0.00000  -0.02548  -0.02384   2.83405
   Z55        2.96927   0.00022   0.00000   0.01361   0.01222   2.98149
   X56        4.88747   0.00059   0.00000   0.03399   0.03576   4.92324
   Y56        3.88556  -0.00045   0.00000  -0.02570  -0.02407   3.86149
   Z56        4.46661   0.00030   0.00000   0.01907   0.01779   4.48440
   X57        7.74157   0.00058   0.00000   0.02787   0.02961   7.77118
   Y57        2.35638  -0.00054   0.00000  -0.03192  -0.03020   2.32618
   Z57        3.73701   0.00013   0.00000   0.00529   0.00367   3.74068
   X58       -0.36368  -0.00057   0.00000  -0.03613  -0.03462  -0.39830
   Y58        4.92049   0.00124   0.00000   0.06909   0.07047   4.99096
   Z58        2.76565   0.00006   0.00000   0.00293   0.00232   2.76797
   X59       -1.70521  -0.00085   0.00000  -0.05028  -0.04863  -1.75384
   Y59        5.74205   0.00100   0.00000   0.05676   0.05812   5.80017
   Z59        4.12947  -0.00006   0.00000  -0.00362  -0.00407   4.12540
   X60        1.30404  -0.00101   0.00000  -0.05614  -0.05468   1.24936
   Y60        6.16385   0.00178   0.00000   0.09591   0.09735   6.26120
   Z60        2.74734  -0.00014   0.00000  -0.00369  -0.00455   2.74279
   X61       -3.19360  -0.00033   0.00000  -0.02122  -0.01891  -3.21251
   Y61       -0.60339  -0.00039   0.00000  -0.02259  -0.02121  -0.62460
   Z61        7.19560   0.00003   0.00000   0.00240   0.00229   7.19790
   X62       -1.64559  -0.00058   0.00000  -0.03453  -0.03229  -1.67789
   Y62        0.75576  -0.00001   0.00000  -0.00456  -0.00313   0.75263
   Z62        7.05289   0.00061   0.00000   0.02857   0.02823   7.08113
   X63       -5.01467  -0.00050   0.00000  -0.03024  -0.02798  -5.04266
   Y63        0.35464  -0.00073   0.00000  -0.04079  -0.03948   0.31516
   Z63        7.04600  -0.00011   0.00000  -0.00390  -0.00379   7.04220
   X64       -3.06871  -0.00046   0.00000  -0.02491  -0.02233  -3.09103
   Y64       -1.68541  -0.00070   0.00000  -0.03780  -0.03638  -1.72179
   Z64        8.94536  -0.00016   0.00000  -0.00679  -0.00688   8.93848
   X65        6.16170   0.00031   0.00000   0.01593   0.01717   6.17887
   Y65        4.47313  -0.00042   0.00000  -0.02286  -0.02128   4.45186
   Z65        0.59545   0.00026   0.00000   0.01456   0.01310   0.60855
   X66        6.86938   0.00047   0.00000   0.02276   0.02385   6.89323
   Y66        3.30154  -0.00030   0.00000  -0.01744  -0.01586   3.28568
   Z66       -0.95996   0.00023   0.00000   0.01351   0.01198  -0.94798
   X67        4.29932   0.00019   0.00000   0.00992   0.01106   4.31038
   Y67        5.14310  -0.00075   0.00000  -0.03745  -0.03595   5.10715
   Z67       -0.01635   0.00039   0.00000   0.01749   0.01626  -0.00009
   X68        7.92215  -0.00003   0.00000  -0.00235  -0.00114   7.92101
   Y68        6.71913  -0.00010   0.00000  -0.00789  -0.00622   6.71291
   Z68        1.01911   0.00015   0.00000   0.01125   0.00950   1.02861
   X69        8.18412  -0.00042   0.00000  -0.02149  -0.02055   8.16357
   Y69        7.81330  -0.00002   0.00000  -0.00248  -0.00085   7.81245
   Z69       -0.71503   0.00015   0.00000   0.01168   0.00987  -0.70517
   X70        7.17289  -0.00013   0.00000  -0.00800  -0.00665   7.16624
   Y70        7.99543  -0.00029   0.00000  -0.01724  -0.01557   7.97986
   Z70        2.46573   0.00026   0.00000   0.01654   0.01486   2.48059
   X71        9.78638   0.00016   0.00000   0.00704   0.00835   9.79474
   Y71        6.08150   0.00025   0.00000   0.00945   0.01120   6.09270
   Z71        1.65412  -0.00006   0.00000   0.00097  -0.00101   1.65310
   X72        9.19885   0.00007   0.00000   0.00294   0.00436   9.20321
   Y72       -4.60657  -0.00026   0.00000  -0.01735  -0.01568  -4.62225
   Z72       -0.75515  -0.00022   0.00000  -0.01067  -0.01231  -0.76746
   X73       10.32072  -0.00001   0.00000   0.00051   0.00215  10.32287
   Y73       -4.51524  -0.00021   0.00000  -0.01524  -0.01349  -4.52872
   Z73        0.97419  -0.00017   0.00000  -0.00921  -0.01100   0.96319
   X74       10.09771   0.00015   0.00000   0.00566   0.00696  10.10467
   Y74       -5.94701  -0.00030   0.00000  -0.01801  -0.01633  -5.96334
   Z74       -2.04924  -0.00014   0.00000  -0.00811  -0.00984  -2.05907
   X75        8.86694   0.00009   0.00000   0.00497   0.00612   8.87305
   Y75       -2.03319  -0.00033   0.00000  -0.01844  -0.01682  -2.05001
   Z75       -2.03132  -0.00026   0.00000  -0.01363  -0.01528  -2.04661
   X76        8.45547   0.00020   0.00000   0.00950   0.01078   8.46625
   Y76       -0.59885  -0.00022   0.00000  -0.01552  -0.01388  -0.61273
   Z76       -0.60207  -0.00029   0.00000  -0.01518  -0.01682  -0.61889
   X77       10.51676   0.00010   0.00000   0.00472   0.00570  10.52246
   Y77       -1.42850  -0.00041   0.00000  -0.02292  -0.02126  -1.44976
   Z77       -3.11302  -0.00035   0.00000  -0.01660  -0.01849  -3.13152
         Item               Value     Threshold  Converged?
 Maximum Force            0.001784     0.000450     NO 
 RMS     Force            0.000385     0.000300     NO 
 Maximum Displacement     0.097353     0.001800     NO 
 RMS     Displacement     0.019733     0.001200     NO 
 Predicted change in Energy=-1.615948D-03
 GradGradGradGradGradGradGradGradGradGradGradGradGradGradGradGradGradGrad

 Leave Link  103 at Thu Feb  7 21:34:12 2019, MaxMem=   104857600 cpu:              24.1 elap:               1.1
 (Enter /home/xinyan/g16/l9999.exe)
 1\1\GINC-TSE4\Force\RM062X\6-31G(d)\C27H41N3O5S1\STEVETSE\07-Feb-2019\
 0\\#p M062X/6-31G* em=gd3 force int=ultrafine\\Title\\0,1\C,-4.95188,0
 .25174,-0.33973\C,-5.11529,-1.01062,-1.19145\C,-3.76919,-1.44868,-1.78
 235\C,-2.78525,-1.69385,-0.64277\C,-2.57652,-0.40988,0.20853\C,-3.9274
 6,0.04377,0.77974\H,-3.87942,-2.34831,-2.39847\H,-5.51912,-1.82181,-0.
 57168\H,-5.8321,-0.83919,-2.00129\H,-4.61053,1.07418,-0.98439\H,-5.919
 16,0.55222,0.07689\H,-3.16592,-2.48822,0.00691\H,-2.2716,0.36403,-0.51
 275\H,-4.28864,-0.69909,1.50145\H,-3.75807,0.98314,1.31981\H,-3.4057,-
 0.63962,-2.43088\N,-1.44596,-2.14906,-1.08902\C,-0.77354,-1.47932,-2.0
 5462\C,-0.74734,-2.95404,-0.25335\C,0.57981,-1.57977,-2.20663\H,-1.366
 46,-0.83136,-2.68716\C,0.60773,-3.1039,-0.34156\H,-1.32341,-3.43786,0.
 52819\C,1.34456,-2.34045,-1.27851\H,1.05762,-1.01819,-2.99876\H,1.0945
 9,-3.71941,0.40176\N,2.6855,-2.31981,-1.27021\C,3.42794,-2.85945,-0.12
 257\H,3.30621,-3.94408,-0.0557\H,3.04698,-2.39842,0.79947\C,3.45232,-1
 .26526,-1.95473\H,3.71354,-1.58701,-2.96987\H,2.86064,-0.34728,-1.9999
 9\N,-1.46361,-0.51649,1.12097\S,-1.50527,-1.42949,2.41255\O,-2.62935,-
 2.3899,2.42642\O,-0.15775,-2.0275,2.61362\C,-0.83981,2.59188,0.09562\C
 ,-0.2536,1.92471,-0.98802\C,-0.87691,1.94768,-2.23443\C,-2.10154,2.594
 87,-2.4071\C,-2.70036,3.23046,-1.32252\C,-2.06573,3.2283,-0.08341\H,0.
 66574,1.36021,-0.84055\H,-0.40643,1.45372,-3.08226\H,-2.58748,2.60381,
 -3.37818\H,-3.6593,3.72693,-1.43483\H,-2.529,3.71734,0.76998\O,0.24019
 ,1.34533,1.8736\H,-0.38695,0.64795,1.4823\C,2.3407,0.23294,1.33673\O,1
 .99141,-0.14461,0.23447\O,2.15713,-0.47563,2.44572\H,1.39874,-1.10606,
 2.32765\C,3.11133,1.51233,1.57127\H,2.58634,2.05615,2.36363\H,4.09666,
 1.24694,1.97754\C,-0.19245,2.60381,1.46352\H,-0.90236,3.03856,2.18522\
 H,0.69007,3.26177,1.45383\C,-1.68998,-0.3193,3.80775\H,-0.87081,0.3999
 3,3.73223\H,-2.65365,0.18767,3.72858\H,-1.62389,-0.89188,4.73368\C,3.2
 6063,2.36708,0.3151\H,3.63512,1.7471,-0.50799\H,2.2751,2.72161,-0.0086
 5\C,4.19222,3.55561,0.53929\H,4.33085,4.13462,-0.37838\H,3.79573,4.231
 ,1.30481\H,5.17873,3.21819,0.87532\C,4.86782,-2.43769,-0.39961\H,5.461
 49,-2.38936,0.51552\H,5.34348,-3.14702,-1.08441\C,4.69218,-1.07592,-1.
 07493\H,4.47444,-0.3169,-0.3186\H,5.56523,-0.75593,-1.64734\\Version=E
 S64L-G16RevA.03\State=1-A\HF=-1991.3816582\RMSD=4.757e-09\RMSF=3.855e-
 04\Dipole=0.6831593,0.0896759,-2.6665666\Quadrupole=10.4328885,-5.0418
 731,-5.3910154,-9.2509113,1.1146141,9.7481526\PG=C01 [X(C27H41N3O5S1)]
 \\@


 It is also a good rule not to put too much confidence in
 experimental results until they have been confirmed by
 Theory.
                             -- Sir Arthur Eddington
 Job cpu time:       0 days  1 hours 20 minutes 34.7 seconds.
 Elapsed time:       0 days  0 hours  3 minutes 23.5 seconds.
 File lengths (MBytes):  RWF=    216 Int=      0 D2E=      0 Chk=     25 Scr=      1
 Normal termination of Gaussian 16 at Thu Feb  7 21:34:12 2019.
