 Entering Gaussian System, Link 0=g16
 Input=C27N3H41SO5-117.gjf
 Output=C27N3H41SO5-117.log
 Initial command:
 /home/xinyan/g16/l1.exe "/local/home/tmp/Gau-15035.inp" -scrdir="/local/home/tmp/"
 Entering Link 1 = /home/xinyan/g16/l1.exe PID=     15036.
  
 Copyright (c) 1988,1990,1992,1993,1995,1998,2003,2009,2016,
            Gaussian, Inc.  All Rights Reserved.
  
 This is part of the Gaussian(R) 16 program.  It is based on
 the Gaussian(R) 09 system (copyright 2009, Gaussian, Inc.),
 the Gaussian(R) 03 system (copyright 2003, Gaussian, Inc.),
 the Gaussian(R) 98 system (copyright 1998, Gaussian, Inc.),
 the Gaussian(R) 94 system (copyright 1995, Gaussian, Inc.),
 the Gaussian 92(TM) system (copyright 1992, Gaussian, Inc.),
 the Gaussian 90(TM) system (copyright 1990, Gaussian, Inc.),
 the Gaussian 88(TM) system (copyright 1988, Gaussian, Inc.),
 the Gaussian 86(TM) system (copyright 1986, Carnegie Mellon
 University), and the Gaussian 82(TM) system (copyright 1983,
 Carnegie Mellon University). Gaussian is a federally registered
 trademark of Gaussian, Inc.
  
 This software contains proprietary and confidential information,
 including trade secrets, belonging to Gaussian, Inc.
  
 This software is provided under written license and may be
 used, copied, transmitted, or stored only in accord with that
 written license.
  
 The following legend is applicable only to US Government
 contracts under FAR:
  
                    RESTRICTED RIGHTS LEGEND
  
 Use, reproduction and disclosure by the US Government is
 subject to restrictions as set forth in subparagraphs (a)
 and (c) of the Commercial Computer Software - Restricted
 Rights clause in FAR 52.227-19.
  
 Gaussian, Inc.
 340 Quinnipiac St., Bldg. 40, Wallingford CT 06492
  
  
 ---------------------------------------------------------------
 Warning -- This program may not be used in any manner that
 competes with the business of Gaussian, Inc. or will provide
 assistance to any competitor of Gaussian, Inc.  The licensee
 of this program is prohibited from giving any competitor of
 Gaussian, Inc. access to this program.  By using this program,
 the user acknowledges that Gaussian, Inc. is engaged in the
 business of creating and licensing software in the field of
 computational chemistry and represents and warrants to the
 licensee that it is not a competitor of Gaussian, Inc. and that
 it will not use this program in any manner prohibited above.
 ---------------------------------------------------------------
  

 Cite this work as:
 Gaussian 16, Revision A.03,
 M. J. Frisch, G. W. Trucks, H. B. Schlegel, G. E. Scuseria, 
 M. A. Robb, J. R. Cheeseman, G. Scalmani, V. Barone, 
 G. A. Petersson, H. Nakatsuji, X. Li, M. Caricato, A. V. Marenich, 
 J. Bloino, B. G. Janesko, R. Gomperts, B. Mennucci, H. P. Hratchian, 
 J. V. Ortiz, A. F. Izmaylov, J. L. Sonnenberg, D. Williams-Young, 
 F. Ding, F. Lipparini, F. Egidi, J. Goings, B. Peng, A. Petrone, 
 T. Henderson, D. Ranasinghe, V. G. Zakrzewski, J. Gao, N. Rega, 
 G. Zheng, W. Liang, M. Hada, M. Ehara, K. Toyota, R. Fukuda, 
 J. Hasegawa, M. Ishida, T. Nakajima, Y. Honda, O. Kitao, H. Nakai, 
 T. Vreven, K. Throssell, J. A. Montgomery, Jr., J. E. Peralta, 
 F. Ogliaro, M. J. Bearpark, J. J. Heyd, E. N. Brothers, K. N. Kudin, 
 V. N. Staroverov, T. A. Keith, R. Kobayashi, J. Normand, 
 K. Raghavachari, A. P. Rendell, J. C. Burant, S. S. Iyengar, 
 J. Tomasi, M. Cossi, J. M. Millam, M. Klene, C. Adamo, R. Cammi, 
 J. W. Ochterski, R. L. Martin, K. Morokuma, O. Farkas, 
 J. B. Foresman, and D. J. Fox, Gaussian, Inc., Wallingford CT, 2016.
 
 ******************************************
 Gaussian 16:  ES64L-G16RevA.03 25-Dec-2016
                 7-Feb-2019 
 ******************************************
 %nproc=24
 Will use up to   24 processors via shared memory.
 ------------------------------------------
 #p M062X/6-31G* em=gd3 force int=ultrafine
 ------------------------------------------
 1/10=7,30=1,38=1/1,3;
 2/12=2,17=6,18=5,40=1/2;
 3/5=1,6=6,7=1,11=2,25=1,30=1,71=1,74=-55,75=-5,124=31/1,2,3;
 4//1;
 5/5=2,38=5/2;
 6/7=2,8=2,9=2,10=2,28=1/1;
 7/29=1/1,2,3,16;
 1/10=7,30=1/3;
 99//99;
 Leave Link    1 at Thu Feb  7 15:01:12 2019, MaxMem=           0 cpu:               2.5 elap:               0.1
 (Enter /home/xinyan/g16/l101.exe)
 -----
 Title
 -----
 Symbolic Z-matrix:
 Charge =  0 Multiplicity = 1
 C                    -4.89562   0.24441  -0.43465 
 C                    -5.08113  -1.02338  -1.27386 
 C                    -3.74838  -1.47456  -1.88432 
 C                    -2.75356  -1.71888  -0.75573 
 C                    -2.52217  -0.42566   0.06819 
 C                    -3.85055   0.04795   0.66829 
 H                    -3.87103  -2.38225  -2.48482 
 H                    -5.47955  -1.82877  -0.64293 
 H                    -5.81103  -0.85091  -2.071 
 H                    -4.57301   1.06342  -1.09071 
 H                    -5.85085   0.54434   0.00843 
 H                    -3.14748  -2.49106  -0.08787 
 H                    -2.18838   0.34586  -0.63746 
 H                    -4.20853  -0.68768   1.39643 
 H                    -3.66953   0.99097   1.19505 
 H                    -3.38552  -0.67802  -2.54794 
 N                    -1.42764  -2.20169  -1.19487 
 C                    -0.72255  -1.50047  -2.12227 
 C                    -0.74956  -3.01742  -0.34376 
 C                     0.63486  -1.55471  -2.19619 
 H                    -1.30181  -0.86334  -2.77925 
 C                     0.60767  -3.10806  -0.34245 
 H                    -1.3551   -3.5386    0.38989 
 C                     1.3681   -2.27415  -1.20522 
 H                     1.14088  -0.96975  -2.95216 
 H                     1.07751  -3.71898   0.41516 
 N                     2.68773  -2.17257  -1.09448 
 C                     3.39276  -2.64887   0.1056 
 H                     3.27281  -3.72956   0.22093 
 H                     2.97765  -2.12067   0.97665 
 C                     3.43104  -1.09089  -1.75502 
 H                     3.69582  -1.38785  -2.77723 
 H                     2.80362  -0.19574  -1.77512 
 N                    -1.41875  -0.55265   1.00722 
 S                    -1.49958  -1.43438   2.37606 
 O                    -2.70334  -2.26973   2.31641 
 O                    -0.21369  -2.1077    2.57644 
 C                    -0.71762   2.46802   0.26358 
 C                    -0.22416   2.01038  -0.96852 
 C                    -0.98584   2.13343  -2.12904 
 C                    -2.25693   2.70737  -2.09343 
 C                    -2.76024   3.16034  -0.87716 
 C                    -1.99231   3.04161   0.28161 
 H                     0.73459   1.50438  -0.9881 
 H                    -0.57622   1.78402  -3.07465 
 H                    -2.84418   2.80656  -3.00222 
 H                    -3.74746   3.61163  -0.82823 
 H                    -2.3932    3.40986   1.22398 
 O                     0.54924   1.27633   2.11408 
 H                    -0.43056  -0.30197   0.71833 
 C                     1.70109   0.56232   1.48022 
 O                     1.31963  -0.01753   0.3608 
 O                     2.0636   -0.34684   2.50347 
 H                     1.36729  -1.02859   2.49507 
 C                     2.90531   1.53735   1.40749 
 H                     2.84262   2.23391   2.25365 
 H                     3.79623   0.92643   1.59842 
 C                     0.09778   2.48106   1.56046 
 H                    -0.54672   2.92762   2.32894 
 H                     0.93645   3.18083   1.42746 
 C                    -1.67406  -0.25447   3.69404 
 H                    -0.80229   0.40253   3.62907 
 H                    -2.60332   0.29586   3.53679 
 H                    -1.70277  -0.80817   4.63393 
 C                     3.10931   2.30173   0.1027 
 H                     3.14722   1.58937  -0.72827 
 H                     2.25965   2.95997  -0.11344 
 C                     4.38964   3.135     0.13353 
 H                     4.54602   3.67583  -0.80502 
 H                     4.35414   3.87232   0.94364 
 H                     5.26601   2.50135   0.30937 
 C                     4.83582  -2.2379   -0.16403 
 H                     5.41746  -2.16664   0.75679 
 H                     5.31862  -2.96393  -0.82743 
 C                     4.66315  -0.88966  -0.86766 
 H                     4.43496  -0.12279  -0.12312 
 H                     5.53998  -0.57692  -1.43849 
 
 ITRead=  0  0  0  0  0  0  0  0  0  0  0  0  0  0  0  0  0  0  0  0
 ITRead=  0  0  0  0  0  0  0  0  0  0  0  0  0  0  0  0  0  0  0  0
 ITRead=  0  0  0  0  0  0  0  0  0  0  0  0  0  0  0  0  0  0  0  0
 ITRead=  0  0  0  0  0  0  0  0  0  0  0  0  0  0  0  0  0
 MicOpt= -1 -1 -1 -1 -1 -1 -1 -1 -1 -1 -1 -1 -1 -1 -1 -1 -1 -1 -1 -1
 MicOpt= -1 -1 -1 -1 -1 -1 -1 -1 -1 -1 -1 -1 -1 -1 -1 -1 -1 -1 -1 -1
 MicOpt= -1 -1 -1 -1 -1 -1 -1 -1 -1 -1 -1 -1 -1 -1 -1 -1 -1 -1 -1 -1
 MicOpt= -1 -1 -1 -1 -1 -1 -1 -1 -1 -1 -1 -1 -1 -1 -1 -1 -1
 NAtoms=     77 NQM=       77 NQMF=       0 NMMI=      0 NMMIF=      0
                NMic=       0 NMicF=      0.
                    Isotopes and Nuclear Properties:
 (Nuclear quadrupole moments (NQMom) in fm**2, nuclear magnetic moments (NMagM)
  in nuclear magnetons)

  Atom         1           2           3           4           5           6           7           8           9          10
 IAtWgt=          12          12          12          12          12          12           1           1           1           1
 AtmWgt=  12.0000000  12.0000000  12.0000000  12.0000000  12.0000000  12.0000000   1.0078250   1.0078250   1.0078250   1.0078250
 NucSpn=           0           0           0           0           0           0           1           1           1           1
 AtZEff=  -0.0000000  -0.0000000  -0.0000000  -0.0000000  -0.0000000  -0.0000000  -0.0000000  -0.0000000  -0.0000000  -0.0000000
 NQMom=    0.0000000   0.0000000   0.0000000   0.0000000   0.0000000   0.0000000   0.0000000   0.0000000   0.0000000   0.0000000
 NMagM=    0.0000000   0.0000000   0.0000000   0.0000000   0.0000000   0.0000000   2.7928460   2.7928460   2.7928460   2.7928460
 AtZNuc=   6.0000000   6.0000000   6.0000000   6.0000000   6.0000000   6.0000000   1.0000000   1.0000000   1.0000000   1.0000000

  Atom        11          12          13          14          15          16          17          18          19          20
 IAtWgt=           1           1           1           1           1           1          14          12          12          12
 AtmWgt=   1.0078250   1.0078250   1.0078250   1.0078250   1.0078250   1.0078250  14.0030740  12.0000000  12.0000000  12.0000000
 NucSpn=           1           1           1           1           1           1           2           0           0           0
 AtZEff=  -0.0000000  -0.0000000  -0.0000000  -0.0000000  -0.0000000  -0.0000000  -0.0000000  -0.0000000  -0.0000000  -0.0000000
 NQMom=    0.0000000   0.0000000   0.0000000   0.0000000   0.0000000   0.0000000   2.0440000   0.0000000   0.0000000   0.0000000
 NMagM=    2.7928460   2.7928460   2.7928460   2.7928460   2.7928460   2.7928460   0.4037610   0.0000000   0.0000000   0.0000000
 AtZNuc=   1.0000000   1.0000000   1.0000000   1.0000000   1.0000000   1.0000000   7.0000000   6.0000000   6.0000000   6.0000000

  Atom        21          22          23          24          25          26          27          28          29          30
 IAtWgt=           1          12           1          12           1           1          14          12           1           1
 AtmWgt=   1.0078250  12.0000000   1.0078250  12.0000000   1.0078250   1.0078250  14.0030740  12.0000000   1.0078250   1.0078250
 NucSpn=           1           0           1           0           1           1           2           0           1           1
 AtZEff=  -0.0000000  -0.0000000  -0.0000000  -0.0000000  -0.0000000  -0.0000000  -0.0000000  -0.0000000  -0.0000000  -0.0000000
 NQMom=    0.0000000   0.0000000   0.0000000   0.0000000   0.0000000   0.0000000   2.0440000   0.0000000   0.0000000   0.0000000
 NMagM=    2.7928460   0.0000000   2.7928460   0.0000000   2.7928460   2.7928460   0.4037610   0.0000000   2.7928460   2.7928460
 AtZNuc=   1.0000000   6.0000000   1.0000000   6.0000000   1.0000000   1.0000000   7.0000000   6.0000000   1.0000000   1.0000000

  Atom        31          32          33          34          35          36          37          38          39          40
 IAtWgt=          12           1           1          14          32          16          16          12          12          12
 AtmWgt=  12.0000000   1.0078250   1.0078250  14.0030740  31.9720718  15.9949146  15.9949146  12.0000000  12.0000000  12.0000000
 NucSpn=           0           1           1           2           0           0           0           0           0           0
 AtZEff=  -0.0000000  -0.0000000  -0.0000000  -0.0000000  -0.0000000  -0.0000000  -0.0000000  -0.0000000  -0.0000000  -0.0000000
 NQMom=    0.0000000   0.0000000   0.0000000   2.0440000   0.0000000   0.0000000   0.0000000   0.0000000   0.0000000   0.0000000
 NMagM=    0.0000000   2.7928460   2.7928460   0.4037610   0.0000000   0.0000000   0.0000000   0.0000000   0.0000000   0.0000000
 AtZNuc=   6.0000000   1.0000000   1.0000000   7.0000000  16.0000000   8.0000000   8.0000000   6.0000000   6.0000000   6.0000000

  Atom        41          42          43          44          45          46          47          48          49          50
 IAtWgt=          12          12          12           1           1           1           1           1          16           1
 AtmWgt=  12.0000000  12.0000000  12.0000000   1.0078250   1.0078250   1.0078250   1.0078250   1.0078250  15.9949146   1.0078250
 NucSpn=           0           0           0           1           1           1           1           1           0           1
 AtZEff=  -0.0000000  -0.0000000  -0.0000000  -0.0000000  -0.0000000  -0.0000000  -0.0000000  -0.0000000  -0.0000000  -0.0000000
 NQMom=    0.0000000   0.0000000   0.0000000   0.0000000   0.0000000   0.0000000   0.0000000   0.0000000   0.0000000   0.0000000
 NMagM=    0.0000000   0.0000000   0.0000000   2.7928460   2.7928460   2.7928460   2.7928460   2.7928460   0.0000000   2.7928460
 AtZNuc=   6.0000000   6.0000000   6.0000000   1.0000000   1.0000000   1.0000000   1.0000000   1.0000000   8.0000000   1.0000000

  Atom        51          52          53          54          55          56          57          58          59          60
 IAtWgt=          12          16          16           1          12           1           1          12           1           1
 AtmWgt=  12.0000000  15.9949146  15.9949146   1.0078250  12.0000000   1.0078250   1.0078250  12.0000000   1.0078250   1.0078250
 NucSpn=           0           0           0           1           0           1           1           0           1           1
 AtZEff=  -0.0000000  -0.0000000  -0.0000000  -0.0000000  -0.0000000  -0.0000000  -0.0000000  -0.0000000  -0.0000000  -0.0000000
 NQMom=    0.0000000   0.0000000   0.0000000   0.0000000   0.0000000   0.0000000   0.0000000   0.0000000   0.0000000   0.0000000
 NMagM=    0.0000000   0.0000000   0.0000000   2.7928460   0.0000000   2.7928460   2.7928460   0.0000000   2.7928460   2.7928460
 AtZNuc=   6.0000000   8.0000000   8.0000000   1.0000000   6.0000000   1.0000000   1.0000000   6.0000000   1.0000000   1.0000000

  Atom        61          62          63          64          65          66          67          68          69          70
 IAtWgt=          12           1           1           1          12           1           1          12           1           1
 AtmWgt=  12.0000000   1.0078250   1.0078250   1.0078250  12.0000000   1.0078250   1.0078250  12.0000000   1.0078250   1.0078250
 NucSpn=           0           1           1           1           0           1           1           0           1           1
 AtZEff=  -0.0000000  -0.0000000  -0.0000000  -0.0000000  -0.0000000  -0.0000000  -0.0000000  -0.0000000  -0.0000000  -0.0000000
 NQMom=    0.0000000   0.0000000   0.0000000   0.0000000   0.0000000   0.0000000   0.0000000   0.0000000   0.0000000   0.0000000
 NMagM=    0.0000000   2.7928460   2.7928460   2.7928460   0.0000000   2.7928460   2.7928460   0.0000000   2.7928460   2.7928460
 AtZNuc=   6.0000000   1.0000000   1.0000000   1.0000000   6.0000000   1.0000000   1.0000000   6.0000000   1.0000000   1.0000000

  Atom        71          72          73          74          75          76          77
 IAtWgt=           1          12           1           1          12           1           1
 AtmWgt=   1.0078250  12.0000000   1.0078250   1.0078250  12.0000000   1.0078250   1.0078250
 NucSpn=           1           0           1           1           0           1           1
 AtZEff=  -0.0000000  -0.0000000  -0.0000000  -0.0000000  -0.0000000  -0.0000000  -0.0000000
 NQMom=    0.0000000   0.0000000   0.0000000   0.0000000   0.0000000   0.0000000   0.0000000
 NMagM=    2.7928460   0.0000000   2.7928460   2.7928460   0.0000000   2.7928460   2.7928460
 AtZNuc=   1.0000000   6.0000000   1.0000000   1.0000000   6.0000000   1.0000000   1.0000000
 Leave Link  101 at Thu Feb  7 15:01:12 2019, MaxMem=   104857600 cpu:               5.7 elap:               0.3
 (Enter /home/xinyan/g16/l103.exe)

 GradGradGradGradGradGradGradGradGradGradGradGradGradGradGradGradGradGrad
 Berny optimization.
 Initialization pass.
 Trust Radius=3.00D-01 FncErr=1.00D-07 GrdErr=1.00D-07 EigMax=2.50D+02 EigMin=1.00D-04
 Number of steps in this run=      2 maximum allowed number of steps=      2.
 GradGradGradGradGradGradGradGradGradGradGradGradGradGradGradGradGradGrad

 Leave Link  103 at Thu Feb  7 15:01:12 2019, MaxMem=   104857600 cpu:               1.6 elap:               0.1
 (Enter /home/xinyan/g16/l202.exe)
 Stoichiometry    C27H41N3O5S
 Framework group  C1[X(C27H41N3O5S)]
 Deg. of freedom   225
 Full point group                 C1      NOp   1
 Largest Abelian subgroup         C1      NOp   1
 Largest concise Abelian subgroup C1      NOp   1
                         Standard orientation:                         
 ---------------------------------------------------------------------
 Center     Atomic      Atomic             Coordinates (Angstroms)
 Number     Number       Type             X           Y           Z
 ---------------------------------------------------------------------
      1          6           0       -4.782416    0.428740   -0.530167
      2          6           0       -4.976687   -0.859317   -1.335862
      3          6           0       -3.653127   -1.318100   -1.960488
      4          6           0       -2.636148   -1.530907   -0.845347
      5          6           0       -2.396427   -0.217558   -0.056389
      6          6           0       -3.715932    0.263426    0.557274
      7          1           0       -3.782045   -2.240242   -2.537184
      8          1           0       -5.358930   -1.651630   -0.678903
      9          1           0       -5.722233   -0.709241   -2.122990
     10          1           0       -4.476510    1.233702   -1.211141
     11          1           0       -5.730829    0.734256   -0.076388
     12          1           0       -3.013383   -2.289129   -0.152335
     13          1           0       -2.080011    0.538818   -0.786030
     14          1           0       -4.056308   -0.456663    1.309009
     15          1           0       -3.530219    1.219445    1.058342
     16          1           0       -3.306999   -0.535579   -2.649248
     17          7           0       -1.316054   -2.017320   -1.297861
     18          6           0       -0.632161   -1.334591   -2.254471
     19          6           0       -0.617842   -2.809460   -0.440768
     20          6           0        0.723909   -1.383822   -2.352546
     21          1           0       -1.226991   -0.715949   -2.915197
     22          6           0        0.739646   -2.893315   -0.462792
     23          1           0       -1.206786   -3.316259    0.316101
     24          6           0        1.479358   -2.076142   -1.358943
     25          1           0        1.212592   -0.814280   -3.131350
     26          1           0        1.226811   -3.483933    0.299958
     27          7           0        2.800255   -1.965448   -1.275377
     28          6           0        3.530083   -2.409925   -0.077917
     29          1           0        3.418136   -3.488189    0.064892
     30          1           0        3.128431   -1.863474    0.788170
     31          6           0        3.525281   -0.895910   -1.974865
     32          1           0        3.772567   -1.215484   -2.994634
     33          1           0        2.892774   -0.004601   -2.004129
     34          7           0       -1.275033   -0.316984    0.864496
     35         16           0       -1.325585   -1.166706    2.254863
     36          8           0       -2.525723   -2.009184    2.237357
     37          8           0       -0.032570   -1.828750    2.446788
     38          6           0       -0.604190    2.688823    0.037377
     39          6           0       -0.131311    2.204820   -1.192717
     40          6           0       -0.915135    2.296797   -2.341310
     41          6           0       -2.188420    2.865107   -2.295304
     42          6           0       -2.671417    3.344021   -1.080738
     43          6           0       -1.881400    3.256352    0.065887
     44          1           0        0.829624    1.703259   -1.218432
     45          1           0       -0.521326    1.927306   -3.286003
     46          1           0       -2.793028    2.940009   -3.194992
     47          1           0       -3.659974    3.791436   -1.023873
     48          1           0       -2.266642    3.644645    1.006737
     49          8           0        0.703341    1.547226    1.891164
     50          1           0       -0.293765   -0.068263    0.551339
     51          6           0        1.847017    0.824243    1.252690
     52          8           0        1.447900    0.216373    0.154492
     53          8           0        2.233430   -0.058822    2.289950
     54          1           0        1.540773   -0.744025    2.310561
     55          6           0        3.044394    1.803253    1.134600
     56          1           0        2.993723    2.519178    1.965260
     57          1           0        3.942000    1.201411    1.323027
     58          6           0        0.235150    2.736366    1.318077
     59          1           0       -0.397319    3.197654    2.087852
     60          1           0        1.067408    3.436968    1.153039
     61          6           0       -1.481841    0.042958    3.547920
     62          1           0       -0.614991    0.702565    3.451261
     63          1           0       -2.416826    0.584829    3.395294
     64          1           0       -1.490046   -0.488646    4.500879
     65          6           0        3.219919    2.537775   -0.191311
     66          1           0        3.246183    1.806288   -1.005954
     67          1           0        2.362840    3.186536   -0.406817
     68          6           0        4.496086    3.377876   -0.203999
     69          1           0        4.632031    3.897279   -1.157712
     70          1           0        4.471709    4.133837    0.589164
     71          1           0        5.378987    2.752884   -0.029850
     72          6           0        4.965630   -1.998253   -0.384103
     73          1           0        5.563933   -1.902500    0.523728
     74          1           0        5.439896   -2.737264   -1.039275
     75          6           0        4.772607   -0.667786   -1.115718
     76          1           0        4.554195    0.115221   -0.385173
     77          1           0        5.636948   -0.364198   -1.710052
 ---------------------------------------------------------------------
 Rotational constants (GHZ):           0.1544871           0.1010306           0.0908058
 Leave Link  202 at Thu Feb  7 15:01:12 2019, MaxMem=   104857600 cpu:               2.5 elap:               0.1
 (Enter /home/xinyan/g16/l301.exe)
 Standard basis: 6-31G(d) (6D, 7F)
 Ernie: Thresh=  0.10000D-02 Tol=  0.10000D-05 Strict=F.
 There are   626 symmetry adapted cartesian basis functions of A   symmetry.
 There are   626 symmetry adapted basis functions of A   symmetry.
   626 basis functions,  1196 primitive gaussians,   626 cartesian basis functions
   140 alpha electrons      140 beta electrons
       nuclear repulsion energy      4991.5498220520 Hartrees.
 IExCor= 4336 DFT=T Ex+Corr=M062X ExCW=0 ScaHFX=  0.540000
 ScaDFX=  1.000000  1.000000  1.000000  1.000000 ScalE2=  1.000000  1.000000
 IRadAn=      5 IRanWt=     -1 IRanGd=            0 ICorTp=0 IEmpDi=131
 NAtoms=   77 NActive=   77 NUniq=   77 SFac= 1.00D+00 NAtFMM=   60 NAOKFM=T Big=T
 Integral buffers will be    131072 words long.
 Raffenetti 2 integral format.
 Two-electron integral symmetry is turned on.
 R6Disp:  Grimme-D3 Dispersion energy=       -0.0108377293 Hartrees.
 Nuclear repulsion after empirical dispersion term =     4991.5389843227 Hartrees.
 Leave Link  301 at Thu Feb  7 15:01:12 2019, MaxMem=   104857600 cpu:               3.0 elap:               0.2
 (Enter /home/xinyan/g16/l302.exe)
 NPDir=0 NMtPBC=     1 NCelOv=     1 NCel=       1 NClECP=     1 NCelD=      1
         NCelK=      1 NCelE2=     1 NClLst=     1 CellRange=     0.0.
 One-electron integrals computed using PRISM.
 One-electron integral symmetry used in STVInt
 PrsmSu:  requested number of processors reduced to:  23 ShMem   1 Linda.
 NBasis=   626 RedAO= T EigKep=  4.44D-04  NBF=   626
 NBsUse=   626 1.00D-06 EigRej= -1.00D+00 NBFU=   626
 Precomputing XC quadrature grid using
 IXCGrd= 4 IRadAn=           5 IRanWt=          -1 IRanGd=           0 AccXCQ= 0.00D+00.
 Generated NRdTot=       0 NPtTot=           0 NUsed=           0 NTot=          32
 NSgBfM=   621   621   621   621   621 MxSgAt=    77 MxSgA2=    77.
 Leave Link  302 at Thu Feb  7 15:01:16 2019, MaxMem=   104857600 cpu:              86.5 elap:               3.8
 (Enter /home/xinyan/g16/l303.exe)
 DipDrv:  MaxL=1.
 Leave Link  303 at Thu Feb  7 15:01:16 2019, MaxMem=   104857600 cpu:               6.2 elap:               0.3
 (Enter /home/xinyan/g16/l401.exe)
 ExpMin= 1.17D-01 ExpMax= 2.19D+04 ExpMxC= 3.30D+03 IAcc=3 IRadAn=         5 AccDes= 0.00D+00
 Harris functional with IExCor= 1009 and IRadAn=       5 diagonalized for initial guess.
 HarFok:  IExCor= 1009 AccDes= 0.00D+00 IRadAn=         5 IDoV= 1 UseB2=F ITyADJ=14
 ICtDFT=  3500011 ScaDFX=  1.000000  1.000000  1.000000  1.000000
 FoFCou: FMM=F IPFlag=           0 FMFlag=      100000 FMFlg1=        2001
         NFxFlg=           0 DoJE=T BraDBF=F KetDBF=T FulRan=T
         wScrn=  0.000000 ICntrl=       500 IOpCl=  0 I1Cent=   200000004 NGrid=           0
         NMat0=    1 NMatS0=      1 NMatT0=    0 NMatD0=    1 NMtDS0=    0 NMtDT0=    0
 Petite list used in FoFCou.
 Harris En= -1990.52937598519    
 JPrj=0 DoOrth=F DoCkMO=F.
 Leave Link  401 at Thu Feb  7 15:01:21 2019, MaxMem=   104857600 cpu:             100.2 elap:               4.2
 (Enter /home/xinyan/g16/l502.exe)
 Integral symmetry usage will be decided dynamically.
 Closed shell SCF:
 Using DIIS extrapolation, IDIIS=  1040.
 NGot=   104857600 LenX=   104051656 LenY=   103659154
 Requested convergence on RMS density matrix=1.00D-08 within 128 cycles.
 Requested convergence on MAX density matrix=1.00D-06.
 Requested convergence on             energy=1.00D-06.
 No special actions if energy rises.
 Fock matrices will be formed incrementally for  20 cycles.
 Integral accuracy reduced to 1.0D-05 until final iterations.

 Cycle   1  Pass 0  IDiag  1:
 FoFJK:  IHMeth= 1 ICntrl=       0 DoSepK=F KAlg= 0 I1Cent=           0 FoldK=F
 IRaf= 990000000 NMat=       1 IRICut=       1 DoRegI=T DoRafI=F ISym2E= 0 IDoP0=0 IntGTp=1.
 FoFCou: FMM=T IPFlag=           0 FMFlag=      100000 FMFlg1=        2001
         NFxFlg=           0 DoJE=F BraDBF=F KetDBF=F FulRan=T
         wScrn=  0.000000 ICntrl=         0 IOpCl=  0 I1Cent=           0 NGrid=           0
         NMat0=    1 NMatS0=      1 NMatT0=    0 NMatD0=    1 NMtDS0=    0 NMtDT0=    0
 Symmetry not used in FoFCou.
 FMM levels:  10  Number of levels for PrismC:   9
 E= -1990.30032406169    
 DIIS: error= 2.23D-02 at cycle   1 NSaved=   1.
 NSaved= 1 IEnMin= 1 EnMin= -1990.30032406169     IErMin= 1 ErrMin= 2.23D-02
 ErrMax= 2.23D-02  0.00D+00 EMaxC= 1.00D-01 BMatC= 1.24D+00 BMatP= 1.24D+00
 IDIUse=3 WtCom= 7.77D-01 WtEn= 2.23D-01
 Coeff-Com:  0.100D+01
 Coeff-En:   0.100D+01
 Coeff:      0.100D+01
 Gap=     0.368 Goal=   None    Shift=    0.000
 GapD=    0.368 DampG=1.000 DampE=0.500 DampFc=0.5000 IDamp=-1.
 Damping current iteration by 5.00D-01
 RMSDP=3.44D-03 MaxDP=3.46D-01              OVMax= 1.95D-01

 Cycle   2  Pass 0  IDiag  1:
 RMSU=  1.71D-03    CP:  9.88D-01
 E= -1990.81291064070     Delta-E=       -0.512586579002 Rises=F Damp=T
 DIIS: error= 7.52D-03 at cycle   2 NSaved=   2.
 NSaved= 2 IEnMin= 2 EnMin= -1990.81291064070     IErMin= 2 ErrMin= 7.52D-03
 ErrMax= 7.52D-03  0.00D+00 EMaxC= 1.00D-01 BMatC= 9.27D-02 BMatP= 1.24D+00
 IDIUse=3 WtCom= 9.25D-01 WtEn= 7.52D-02
 Coeff-Com: -0.290D-01 0.103D+01
 Coeff-En:   0.000D+00 0.100D+01
 Coeff:     -0.268D-01 0.103D+01
 Gap=     0.262 Goal=   None    Shift=    0.000
 RMSDP=8.54D-04 MaxDP=7.79D-02 DE=-5.13D-01 OVMax= 1.16D-01

 Cycle   3  Pass 0  IDiag  1:
 RMSU=  8.44D-04    CP:  9.81D-01  9.47D-01
 E= -1991.31778257416     Delta-E=       -0.504871933468 Rises=F Damp=F
 DIIS: error= 6.31D-03 at cycle   3 NSaved=   3.
 NSaved= 3 IEnMin= 3 EnMin= -1991.31778257416     IErMin= 3 ErrMin= 6.31D-03
 ErrMax= 6.31D-03  0.00D+00 EMaxC= 1.00D-01 BMatC= 4.92D-02 BMatP= 9.27D-02
 IDIUse=3 WtCom= 9.37D-01 WtEn= 6.31D-02
 Coeff-Com: -0.712D-01 0.440D+00 0.631D+00
 Coeff-En:   0.000D+00 0.000D+00 0.100D+01
 Coeff:     -0.667D-01 0.412D+00 0.655D+00
 Gap=     0.246 Goal=   None    Shift=    0.000
 RMSDP=5.08D-04 MaxDP=3.73D-02 DE=-5.05D-01 OVMax= 5.97D-02

 Cycle   4  Pass 0  IDiag  1:
 RMSU=  3.37D-04    CP:  9.84D-01  1.05D+00  6.05D-01
 E= -1991.34806441750     Delta-E=       -0.030281843333 Rises=F Damp=F
 DIIS: error= 3.89D-03 at cycle   4 NSaved=   4.
 NSaved= 4 IEnMin= 4 EnMin= -1991.34806441750     IErMin= 4 ErrMin= 3.89D-03
 ErrMax= 3.89D-03  0.00D+00 EMaxC= 1.00D-01 BMatC= 1.19D-02 BMatP= 4.92D-02
 IDIUse=3 WtCom= 9.61D-01 WtEn= 3.89D-02
 Coeff-Com: -0.286D-01 0.918D-01 0.357D+00 0.579D+00
 Coeff-En:   0.000D+00 0.000D+00 0.204D+00 0.796D+00
 Coeff:     -0.275D-01 0.882D-01 0.351D+00 0.588D+00
 Gap=     0.228 Goal=   None    Shift=    0.000
 RMSDP=2.04D-04 MaxDP=1.44D-02 DE=-3.03D-02 OVMax= 2.76D-02

 Cycle   5  Pass 0  IDiag  1:
 RMSU=  8.59D-05    CP:  9.83D-01  1.04D+00  7.33D-01  5.62D-01
 E= -1991.35792702114     Delta-E=       -0.009862603646 Rises=F Damp=F
 DIIS: error= 1.00D-03 at cycle   5 NSaved=   5.
 NSaved= 5 IEnMin= 5 EnMin= -1991.35792702114     IErMin= 5 ErrMin= 1.00D-03
 ErrMax= 1.00D-03  0.00D+00 EMaxC= 1.00D-01 BMatC= 5.80D-04 BMatP= 1.19D-02
 IDIUse=3 WtCom= 9.90D-01 WtEn= 1.00D-02
 Coeff-Com: -0.940D-02 0.216D-01 0.134D+00 0.285D+00 0.569D+00
 Coeff-En:   0.000D+00 0.000D+00 0.000D+00 0.000D+00 0.100D+01
 Coeff:     -0.931D-02 0.214D-01 0.132D+00 0.283D+00 0.573D+00
 Gap=     0.229 Goal=   None    Shift=    0.000
 RMSDP=5.07D-05 MaxDP=3.70D-03 DE=-9.86D-03 OVMax= 8.74D-03

 Cycle   6  Pass 0  IDiag  1:
 RMSU=  2.71D-05    CP:  9.83D-01  1.04D+00  7.31D-01  6.35D-01  5.93D-01
 E= -1991.35843135274     Delta-E=       -0.000504331599 Rises=F Damp=F
 DIIS: error= 3.27D-04 at cycle   6 NSaved=   6.
 NSaved= 6 IEnMin= 6 EnMin= -1991.35843135274     IErMin= 6 ErrMin= 3.27D-04
 ErrMax= 3.27D-04  0.00D+00 EMaxC= 1.00D-01 BMatC= 5.77D-05 BMatP= 5.80D-04
 IDIUse=3 WtCom= 9.97D-01 WtEn= 3.27D-03
 EnCoef did     3 forward-backward iterations
 Coeff-Com: -0.185D-02 0.196D-02 0.301D-01 0.828D-01 0.293D+00 0.594D+00
 Coeff-En:   0.000D+00 0.000D+00 0.000D+00 0.000D+00 0.911D-03 0.999D+00
 Coeff:     -0.184D-02 0.196D-02 0.300D-01 0.825D-01 0.292D+00 0.595D+00
 Gap=     0.229 Goal=   None    Shift=    0.000
 RMSDP=1.49D-05 MaxDP=8.80D-04 DE=-5.04D-04 OVMax= 2.36D-03

 Cycle   7  Pass 0  IDiag  1:
 RMSU=  9.33D-06    CP:  9.83D-01  1.04D+00  7.34D-01  6.35D-01  6.76D-01
                    CP:  6.76D-01
 E= -1991.35848566024     Delta-E=       -0.000054307499 Rises=F Damp=F
 DIIS: error= 5.11D-05 at cycle   7 NSaved=   7.
 NSaved= 7 IEnMin= 7 EnMin= -1991.35848566024     IErMin= 7 ErrMin= 5.11D-05
 ErrMax= 5.11D-05  0.00D+00 EMaxC= 1.00D-01 BMatC= 3.88D-06 BMatP= 5.77D-05
 IDIUse=1 WtCom= 1.00D+00 WtEn= 0.00D+00
 Coeff-Com:  0.165D-03-0.132D-02-0.125D-02 0.612D-02 0.719D-01 0.256D+00
 Coeff-Com:  0.668D+00
 Coeff:      0.165D-03-0.132D-02-0.125D-02 0.612D-02 0.719D-01 0.256D+00
 Coeff:      0.668D+00
 Gap=     0.229 Goal=   None    Shift=    0.000
 RMSDP=4.44D-06 MaxDP=2.40D-04 DE=-5.43D-05 OVMax= 5.12D-04

 Initial convergence to 1.0D-05 achieved.  Increase integral accuracy.
 Cycle   8  Pass 1  IDiag  1:
 E= -1991.35855134765     Delta-E=       -0.000065687412 Rises=F Damp=F
 DIIS: error= 2.20D-04 at cycle   1 NSaved=   1.
 NSaved= 1 IEnMin= 1 EnMin= -1991.35855134765     IErMin= 1 ErrMin= 2.20D-04
 ErrMax= 2.20D-04  0.00D+00 EMaxC= 1.00D-01 BMatC= 1.35D-05 BMatP= 1.35D-05
 IDIUse=3 WtCom= 9.98D-01 WtEn= 2.20D-03
 Coeff-Com:  0.100D+01
 Coeff-En:   0.100D+01
 Coeff:      0.100D+01
 Gap=     0.229 Goal=   None    Shift=    0.000
 RMSDP=4.44D-06 MaxDP=2.40D-04 DE=-6.57D-05 OVMax= 4.50D-04

 Cycle   9  Pass 1  IDiag  1:
 RMSU=  7.35D-05    CP:  1.00D+00
 E= -1991.35856338790     Delta-E=       -0.000012040244 Rises=F Damp=F
 DIIS: error= 2.15D-05 at cycle   2 NSaved=   2.
 NSaved= 2 IEnMin= 2 EnMin= -1991.35856338790     IErMin= 2 ErrMin= 2.15D-05
 ErrMax= 2.15D-05  0.00D+00 EMaxC= 1.00D-01 BMatC= 7.83D-07 BMatP= 1.35D-05
 IDIUse=1 WtCom= 1.00D+00 WtEn= 0.00D+00
 Coeff-Com:  0.676D-01 0.932D+00
 Coeff:      0.676D-01 0.932D+00
 Gap=     0.229 Goal=   None    Shift=    0.000
 RMSDP=3.85D-06 MaxDP=2.02D-04 DE=-1.20D-05 OVMax= 3.53D-04

 Cycle  10  Pass 1  IDiag  1:
 RMSU=  3.23D-06    CP:  1.00D+00  1.03D+00
 E= -1991.35856303296     Delta-E=        0.000000354931 Rises=F Damp=F
 DIIS: error= 3.56D-05 at cycle   3 NSaved=   3.
 NSaved= 3 IEnMin= 2 EnMin= -1991.35856338790     IErMin= 2 ErrMin= 2.15D-05
 ErrMax= 3.56D-05  0.00D+00 EMaxC= 1.00D-01 BMatC= 1.24D-06 BMatP= 7.83D-07
 IDIUse=1 WtCom= 1.00D+00 WtEn= 0.00D+00
 Coeff-Com: -0.144D-01 0.563D+00 0.452D+00
 Coeff:     -0.144D-01 0.563D+00 0.452D+00
 Gap=     0.229 Goal=   None    Shift=    0.000
 RMSDP=1.83D-06 MaxDP=1.21D-04 DE= 3.55D-07 OVMax= 2.18D-04

 Cycle  11  Pass 1  IDiag  1:
 RMSU=  6.19D-07    CP:  1.00D+00  1.03D+00  4.78D-01
 E= -1991.35856406829     Delta-E=       -0.000001035325 Rises=F Damp=F
 DIIS: error= 3.97D-06 at cycle   4 NSaved=   4.
 NSaved= 4 IEnMin= 4 EnMin= -1991.35856406829     IErMin= 4 ErrMin= 3.97D-06
 ErrMax= 3.97D-06  0.00D+00 EMaxC= 1.00D-01 BMatC= 1.10D-08 BMatP= 7.83D-07
 IDIUse=1 WtCom= 1.00D+00 WtEn= 0.00D+00
 Coeff-Com: -0.798D-02 0.257D+00 0.217D+00 0.535D+00
 Coeff:     -0.798D-02 0.257D+00 0.217D+00 0.535D+00
 Gap=     0.229 Goal=   None    Shift=    0.000
 RMSDP=2.17D-07 MaxDP=1.16D-05 DE=-1.04D-06 OVMax= 3.51D-05

 Cycle  12  Pass 1  IDiag  1:
 RMSU=  1.91D-07    CP:  1.00D+00  1.03D+00  4.96D-01  8.66D-01
 E= -1991.35856407862     Delta-E=       -0.000000010329 Rises=F Damp=F
 DIIS: error= 1.49D-06 at cycle   5 NSaved=   5.
 NSaved= 5 IEnMin= 5 EnMin= -1991.35856407862     IErMin= 5 ErrMin= 1.49D-06
 ErrMax= 1.49D-06  0.00D+00 EMaxC= 1.00D-01 BMatC= 9.33D-10 BMatP= 1.10D-08
 IDIUse=1 WtCom= 1.00D+00 WtEn= 0.00D+00
 Coeff-Com: -0.103D-02 0.194D-01 0.178D-01 0.215D+00 0.749D+00
 Coeff:     -0.103D-02 0.194D-01 0.178D-01 0.215D+00 0.749D+00
 Gap=     0.229 Goal=   None    Shift=    0.000
 RMSDP=8.37D-08 MaxDP=4.95D-06 DE=-1.03D-08 OVMax= 9.23D-06

 Cycle  13  Pass 1  IDiag  1:
 RMSU=  6.46D-08    CP:  1.00D+00  1.03D+00  4.97D-01  9.37D-01  8.61D-01
 E= -1991.35856407940     Delta-E=       -0.000000000786 Rises=F Damp=F
 DIIS: error= 4.84D-07 at cycle   6 NSaved=   6.
 NSaved= 6 IEnMin= 6 EnMin= -1991.35856407940     IErMin= 6 ErrMin= 4.84D-07
 ErrMax= 4.84D-07  0.00D+00 EMaxC= 1.00D-01 BMatC= 2.38D-10 BMatP= 9.33D-10
 IDIUse=1 WtCom= 1.00D+00 WtEn= 0.00D+00
 Coeff-Com:  0.745D-03-0.314D-01-0.263D-01 0.379D-01 0.411D+00 0.608D+00
 Coeff:      0.745D-03-0.314D-01-0.263D-01 0.379D-01 0.411D+00 0.608D+00
 Gap=     0.229 Goal=   None    Shift=    0.000
 RMSDP=3.50D-08 MaxDP=1.71D-06 DE=-7.86D-10 OVMax= 5.50D-06

 Cycle  14  Pass 1  IDiag  1:
 RMSU=  2.48D-08    CP:  1.00D+00  1.03D+00  4.97D-01  9.56D-01  9.44D-01
                    CP:  7.87D-01
 E= -1991.35856407964     Delta-E=       -0.000000000235 Rises=F Damp=F
 DIIS: error= 1.56D-07 at cycle   7 NSaved=   7.
 NSaved= 7 IEnMin= 7 EnMin= -1991.35856407964     IErMin= 7 ErrMin= 1.56D-07
 ErrMax= 1.56D-07  0.00D+00 EMaxC= 1.00D-01 BMatC= 1.61D-11 BMatP= 2.38D-10
 IDIUse=1 WtCom= 1.00D+00 WtEn= 0.00D+00
 Coeff-Com:  0.405D-03-0.150D-01-0.130D-01 0.263D-03 0.109D+00 0.264D+00
 Coeff-Com:  0.654D+00
 Coeff:      0.405D-03-0.150D-01-0.130D-01 0.263D-03 0.109D+00 0.264D+00
 Coeff:      0.654D+00
 Gap=     0.229 Goal=   None    Shift=    0.000
 RMSDP=9.44D-09 MaxDP=4.94D-07 DE=-2.35D-10 OVMax= 1.43D-06

 SCF Done:  E(RM062X) =  -1991.35856408     A.U. after   14 cycles
            NFock= 14  Conv=0.94D-08     -V/T= 2.0076
 KE= 1.976420121635D+03 PE=-1.463541004713D+04 EE= 5.676092377096D+03
 Leave Link  502 at Thu Feb  7 15:03:51 2019, MaxMem=   104857600 cpu:            3604.7 elap:             150.5
 (Enter /home/xinyan/g16/l601.exe)
 Copying SCF densities to generalized density rwf, IOpCl= 0 IROHF=0.

 **********************************************************************

            Population analysis using the SCF density.

 **********************************************************************

 Orbital symmetries:
       Occupied  (A) (A) (A) (A) (A) (A) (A) (A) (A) (A) (A) (A)
                 (A) (A) (A) (A) (A) (A) (A) (A) (A) (A) (A) (A)
                 (A) (A) (A) (A) (A) (A) (A) (A) (A) (A) (A) (A)
                 (A) (A) (A) (A) (A) (A) (A) (A) (A) (A) (A) (A)
                 (A) (A) (A) (A) (A) (A) (A) (A) (A) (A) (A) (A)
                 (A) (A) (A) (A) (A) (A) (A) (A) (A) (A) (A) (A)
                 (A) (A) (A) (A) (A) (A) (A) (A) (A) (A) (A) (A)
                 (A) (A) (A) (A) (A) (A) (A) (A) (A) (A) (A) (A)
                 (A) (A) (A) (A) (A) (A) (A) (A) (A) (A) (A) (A)
                 (A) (A) (A) (A) (A) (A) (A) (A) (A) (A) (A) (A)
                 (A) (A) (A) (A) (A) (A) (A) (A) (A) (A) (A) (A)
                 (A) (A) (A) (A) (A) (A) (A) (A)
       Virtual   (A) (A) (A) (A) (A) (A) (A) (A) (A) (A) (A) (A)
                 (A) (A) (A) (A) (A) (A) (A) (A) (A) (A) (A) (A)
                 (A) (A) (A) (A) (A) (A) (A) (A) (A) (A) (A) (A)
                 (A) (A) (A) (A) (A) (A) (A) (A) (A) (A) (A) (A)
                 (A) (A) (A) (A) (A) (A) (A) (A) (A) (A) (A) (A)
                 (A) (A) (A) (A) (A) (A) (A) (A) (A) (A) (A) (A)
                 (A) (A) (A) (A) (A) (A) (A) (A) (A) (A) (A) (A)
                 (A) (A) (A) (A) (A) (A) (A) (A) (A) (A) (A) (A)
                 (A) (A) (A) (A) (A) (A) (A) (A) (A) (A) (A) (A)
                 (A) (A) (A) (A) (A) (A) (A) (A) (A) (A) (A) (A)
                 (A) (A) (A) (A) (A) (A) (A) (A) (A) (A) (A) (A)
                 (A) (A) (A) (A) (A) (A) (A) (A) (A) (A) (A) (A)
                 (A) (A) (A) (A) (A) (A) (A) (A) (A) (A) (A) (A)
                 (A) (A) (A) (A) (A) (A) (A) (A) (A) (A) (A) (A)
                 (A) (A) (A) (A) (A) (A) (A) (A) (A) (A) (A) (A)
                 (A) (A) (A) (A) (A) (A) (A) (A) (A) (A) (A) (A)
                 (A) (A) (A) (A) (A) (A) (A) (A) (A) (A) (A) (A)
                 (A) (A) (A) (A) (A) (A) (A) (A) (A) (A) (A) (A)
                 (A) (A) (A) (A) (A) (A) (A) (A) (A) (A) (A) (A)
                 (A) (A) (A) (A) (A) (A) (A) (A) (A) (A) (A) (A)
                 (A) (A) (A) (A) (A) (A) (A) (A) (A) (A) (A) (A)
                 (A) (A) (A) (A) (A) (A) (A) (A) (A) (A) (A) (A)
                 (A) (A) (A) (A) (A) (A) (A) (A) (A) (A) (A) (A)
                 (A) (A) (A) (A) (A) (A) (A) (A) (A) (A) (A) (A)
                 (A) (A) (A) (A) (A) (A) (A) (A) (A) (A) (A) (A)
                 (A) (A) (A) (A) (A) (A) (A) (A) (A) (A) (A) (A)
                 (A) (A) (A) (A) (A) (A) (A) (A) (A) (A) (A) (A)
                 (A) (A) (A) (A) (A) (A) (A) (A) (A) (A) (A) (A)
                 (A) (A) (A) (A) (A) (A) (A) (A) (A) (A) (A) (A)
                 (A) (A) (A) (A) (A) (A) (A) (A) (A) (A) (A) (A)
                 (A) (A) (A) (A) (A) (A) (A) (A) (A) (A) (A) (A)
                 (A) (A) (A) (A) (A) (A) (A) (A) (A) (A) (A) (A)
                 (A) (A) (A) (A) (A) (A) (A) (A) (A) (A) (A) (A)
                 (A) (A) (A) (A) (A) (A) (A) (A) (A) (A) (A) (A)
                 (A) (A) (A) (A) (A) (A) (A) (A) (A) (A) (A) (A)
                 (A) (A) (A) (A) (A) (A) (A) (A) (A) (A) (A) (A)
                 (A) (A) (A) (A) (A) (A) (A) (A) (A) (A) (A) (A)
                 (A) (A) (A) (A) (A) (A) (A) (A) (A) (A) (A) (A)
                 (A) (A) (A) (A) (A) (A) (A) (A) (A) (A) (A) (A)
                 (A) (A) (A) (A) (A) (A) (A) (A) (A) (A) (A) (A)
                 (A) (A) (A) (A) (A) (A)
 The electronic state is 1-A.
 Alpha  occ. eigenvalues --  -90.14170 -19.61775 -19.61753 -19.58692 -19.56701
 Alpha  occ. eigenvalues --  -19.51270 -14.85167 -14.80449 -14.75735 -10.63419
 Alpha  occ. eigenvalues --  -10.62787 -10.62255 -10.62187 -10.60723 -10.59339
 Alpha  occ. eigenvalues --  -10.58471 -10.57997 -10.57945 -10.57155 -10.56892
 Alpha  occ. eigenvalues --  -10.56688 -10.55656 -10.55602 -10.55117 -10.54846
 Alpha  occ. eigenvalues --  -10.54836 -10.54784 -10.54720 -10.54570 -10.54397
 Alpha  occ. eigenvalues --  -10.54319 -10.54316 -10.53077 -10.51521 -10.51471
 Alpha  occ. eigenvalues --  -10.49703  -8.45146  -6.37363  -6.37341  -6.37183
 Alpha  occ. eigenvalues --   -1.21993  -1.13593  -1.13496  -1.10250  -1.09348
 Alpha  occ. eigenvalues --   -1.05875  -1.01725  -0.99326  -0.95741  -0.94986
 Alpha  occ. eigenvalues --   -0.93491  -0.90298  -0.88754  -0.85902  -0.85787
 Alpha  occ. eigenvalues --   -0.84821  -0.84706  -0.84241  -0.83053  -0.82691
 Alpha  occ. eigenvalues --   -0.76665  -0.76285  -0.75833  -0.74368  -0.72785
 Alpha  occ. eigenvalues --   -0.71642  -0.68328  -0.68234  -0.67937  -0.67202
 Alpha  occ. eigenvalues --   -0.66747  -0.65227  -0.64867  -0.63526  -0.60558
 Alpha  occ. eigenvalues --   -0.60403  -0.59783  -0.59007  -0.57806  -0.57591
 Alpha  occ. eigenvalues --   -0.57173  -0.56436  -0.55780  -0.55170  -0.54194
 Alpha  occ. eigenvalues --   -0.53542  -0.52653  -0.52453  -0.52428  -0.51902
 Alpha  occ. eigenvalues --   -0.51548  -0.51028  -0.50773  -0.49875  -0.49564
 Alpha  occ. eigenvalues --   -0.49159  -0.48833  -0.48207  -0.48136  -0.48022
 Alpha  occ. eigenvalues --   -0.47667  -0.47462  -0.46909  -0.46438  -0.46103
 Alpha  occ. eigenvalues --   -0.44881  -0.44733  -0.44140  -0.43871  -0.43260
 Alpha  occ. eigenvalues --   -0.42507  -0.42129  -0.41413  -0.41329  -0.41121
 Alpha  occ. eigenvalues --   -0.40900  -0.40477  -0.39993  -0.39815  -0.39326
 Alpha  occ. eigenvalues --   -0.39255  -0.39067  -0.38443  -0.37952  -0.37593
 Alpha  occ. eigenvalues --   -0.37391  -0.36740  -0.36565  -0.35738  -0.34903
 Alpha  occ. eigenvalues --   -0.34387  -0.33959  -0.31672  -0.31087  -0.29769
 Alpha  occ. eigenvalues --   -0.28880  -0.28599  -0.27643  -0.24864  -0.24422
 Alpha virt. eigenvalues --   -0.01518   0.00408   0.03556   0.03760   0.10142
 Alpha virt. eigenvalues --    0.11001   0.11652   0.12191   0.13179   0.13515
 Alpha virt. eigenvalues --    0.14211   0.14608   0.14759   0.15233   0.15600
 Alpha virt. eigenvalues --    0.16047   0.16860   0.16959   0.17215   0.17665
 Alpha virt. eigenvalues --    0.18049   0.18329   0.18494   0.18831   0.18930
 Alpha virt. eigenvalues --    0.19308   0.19727   0.19918   0.20119   0.20286
 Alpha virt. eigenvalues --    0.20644   0.20975   0.21063   0.21584   0.21670
 Alpha virt. eigenvalues --    0.22180   0.22547   0.22870   0.23456   0.23655
 Alpha virt. eigenvalues --    0.23876   0.24205   0.24524   0.24736   0.24961
 Alpha virt. eigenvalues --    0.25269   0.25528   0.25989   0.26374   0.26809
 Alpha virt. eigenvalues --    0.27094   0.27816   0.27862   0.28615   0.29013
 Alpha virt. eigenvalues --    0.29380   0.29592   0.29866   0.30791   0.30933
 Alpha virt. eigenvalues --    0.31342   0.31672   0.32254   0.32678   0.33126
 Alpha virt. eigenvalues --    0.33662   0.34580   0.35208   0.35497   0.35795
 Alpha virt. eigenvalues --    0.36515   0.37313   0.37743   0.38010   0.38855
 Alpha virt. eigenvalues --    0.39939   0.40337   0.40773   0.42821   0.43271
 Alpha virt. eigenvalues --    0.44475   0.44765   0.46948   0.48106   0.48824
 Alpha virt. eigenvalues --    0.49840   0.51213   0.52716   0.53424   0.54960
 Alpha virt. eigenvalues --    0.55154   0.55354   0.55990   0.56534   0.56888
 Alpha virt. eigenvalues --    0.57530   0.58317   0.58609   0.58692   0.59425
 Alpha virt. eigenvalues --    0.59519   0.59937   0.60354   0.60469   0.60557
 Alpha virt. eigenvalues --    0.61180   0.61420   0.62392   0.62635   0.62883
 Alpha virt. eigenvalues --    0.63786   0.64060   0.64594   0.65072   0.65566
 Alpha virt. eigenvalues --    0.66088   0.66666   0.66955   0.67449   0.67902
 Alpha virt. eigenvalues --    0.68415   0.69014   0.69129   0.69951   0.70641
 Alpha virt. eigenvalues --    0.71050   0.71461   0.71744   0.72978   0.73518
 Alpha virt. eigenvalues --    0.73578   0.74225   0.74721   0.74932   0.75743
 Alpha virt. eigenvalues --    0.76627   0.77313   0.77803   0.78650   0.78992
 Alpha virt. eigenvalues --    0.79490   0.79814   0.80218   0.81030   0.81369
 Alpha virt. eigenvalues --    0.81718   0.82074   0.82818   0.83816   0.84509
 Alpha virt. eigenvalues --    0.84880   0.85363   0.85716   0.86143   0.87156
 Alpha virt. eigenvalues --    0.87714   0.88446   0.89022   0.89448   0.89593
 Alpha virt. eigenvalues --    0.89744   0.90142   0.90553   0.91000   0.91253
 Alpha virt. eigenvalues --    0.91728   0.92283   0.92832   0.93018   0.93256
 Alpha virt. eigenvalues --    0.93637   0.94267   0.94755   0.95091   0.95375
 Alpha virt. eigenvalues --    0.95856   0.96111   0.96618   0.96712   0.97046
 Alpha virt. eigenvalues --    0.97308   0.97946   0.98092   0.98397   0.98443
 Alpha virt. eigenvalues --    0.99151   0.99650   0.99778   1.00499   1.00799
 Alpha virt. eigenvalues --    1.01344   1.01898   1.02192   1.02771   1.03030
 Alpha virt. eigenvalues --    1.03190   1.04222   1.04636   1.04670   1.05639
 Alpha virt. eigenvalues --    1.05904   1.07014   1.07630   1.08312   1.09071
 Alpha virt. eigenvalues --    1.10310   1.10698   1.11608   1.11800   1.11859
 Alpha virt. eigenvalues --    1.13347   1.13604   1.14592   1.15097   1.15569
 Alpha virt. eigenvalues --    1.16897   1.17743   1.18406   1.18560   1.18917
 Alpha virt. eigenvalues --    1.19901   1.20970   1.21171   1.21722   1.22095
 Alpha virt. eigenvalues --    1.22796   1.23664   1.24103   1.24618   1.25635
 Alpha virt. eigenvalues --    1.25979   1.28031   1.29017   1.29405   1.30560
 Alpha virt. eigenvalues --    1.31383   1.31541   1.32124   1.32523   1.33726
 Alpha virt. eigenvalues --    1.34045   1.34412   1.35102   1.36188   1.37049
 Alpha virt. eigenvalues --    1.37352   1.38393   1.39196   1.40748   1.41347
 Alpha virt. eigenvalues --    1.41764   1.42293   1.43810   1.44588   1.46191
 Alpha virt. eigenvalues --    1.47409   1.47931   1.48426   1.49178   1.49787
 Alpha virt. eigenvalues --    1.51047   1.51925   1.52456   1.52811   1.54486
 Alpha virt. eigenvalues --    1.54815   1.55095   1.55980   1.57144   1.57218
 Alpha virt. eigenvalues --    1.57460   1.58535   1.60564   1.61058   1.61250
 Alpha virt. eigenvalues --    1.61936   1.62851   1.63708   1.65631   1.67408
 Alpha virt. eigenvalues --    1.69019   1.69675   1.70266   1.72199   1.72747
 Alpha virt. eigenvalues --    1.74318   1.74743   1.75844   1.77263   1.77926
 Alpha virt. eigenvalues --    1.78552   1.79420   1.80415   1.80912   1.81853
 Alpha virt. eigenvalues --    1.84367   1.84627   1.85170   1.85802   1.85909
 Alpha virt. eigenvalues --    1.86317   1.87031   1.87592   1.87970   1.89029
 Alpha virt. eigenvalues --    1.89960   1.90076   1.90389   1.90993   1.91894
 Alpha virt. eigenvalues --    1.92720   1.93823   1.94215   1.94685   1.94772
 Alpha virt. eigenvalues --    1.95420   1.95906   1.96450   1.97057   1.97766
 Alpha virt. eigenvalues --    1.98635   1.99088   1.99235   2.00019   2.00909
 Alpha virt. eigenvalues --    2.01838   2.02187   2.02346   2.02734   2.04110
 Alpha virt. eigenvalues --    2.04480   2.06183   2.06328   2.06961   2.07415
 Alpha virt. eigenvalues --    2.07662   2.08474   2.08851   2.09211   2.09473
 Alpha virt. eigenvalues --    2.09883   2.10628   2.11816   2.11931   2.12891
 Alpha virt. eigenvalues --    2.12930   2.14218   2.14430   2.15240   2.15943
 Alpha virt. eigenvalues --    2.16289   2.16715   2.17180   2.18707   2.19096
 Alpha virt. eigenvalues --    2.19972   2.20357   2.20738   2.21531   2.22367
 Alpha virt. eigenvalues --    2.23164   2.23407   2.23625   2.23769   2.24590
 Alpha virt. eigenvalues --    2.25463   2.25931   2.26446   2.27476   2.28453
 Alpha virt. eigenvalues --    2.28935   2.30252   2.30859   2.30895   2.31692
 Alpha virt. eigenvalues --    2.32327   2.33998   2.34744   2.35194   2.35631
 Alpha virt. eigenvalues --    2.36080   2.37459   2.37659   2.38598   2.38730
 Alpha virt. eigenvalues --    2.39059   2.40319   2.40938   2.41555   2.42765
 Alpha virt. eigenvalues --    2.43322   2.44478   2.45383   2.46036   2.47005
 Alpha virt. eigenvalues --    2.49590   2.50676   2.51841   2.52263   2.52922
 Alpha virt. eigenvalues --    2.54293   2.54548   2.56154   2.57043   2.59958
 Alpha virt. eigenvalues --    2.60902   2.61846   2.62345   2.63143   2.63974
 Alpha virt. eigenvalues --    2.64684   2.64858   2.65754   2.67258   2.68330
 Alpha virt. eigenvalues --    2.68859   2.69613   2.70474   2.71698   2.72778
 Alpha virt. eigenvalues --    2.73609   2.74441   2.76268   2.76720   2.77489
 Alpha virt. eigenvalues --    2.79535   2.80231   2.80705   2.80789   2.81586
 Alpha virt. eigenvalues --    2.83468   2.85477   2.86203   2.87182   2.88373
 Alpha virt. eigenvalues --    2.89185   2.91010   2.92547   2.93955   2.96921
 Alpha virt. eigenvalues --    2.99682   3.00327   3.03162   3.05232   3.10560
 Alpha virt. eigenvalues --    3.14757   3.16334   3.23873   3.41300   3.42813
 Alpha virt. eigenvalues --    3.96729   4.02199   4.04861   4.09469   4.11012
 Alpha virt. eigenvalues --    4.15748   4.17206   4.18090   4.18725   4.19679
 Alpha virt. eigenvalues --    4.21143   4.23187   4.24503   4.26603   4.27506
 Alpha virt. eigenvalues --    4.29723   4.32701   4.33251   4.34703   4.35160
 Alpha virt. eigenvalues --    4.39989   4.40894   4.41915   4.43794   4.47601
 Alpha virt. eigenvalues --    4.50070   4.55768   4.58175   4.59223   4.61575
 Alpha virt. eigenvalues --    4.63996   4.66100   4.73765   4.75585   4.76892
 Alpha virt. eigenvalues --    4.80275
          Condensed to atoms (all electrons):
 Mulliken charges:
               1
     1  C   -0.306257
     2  C   -0.307104
     3  C   -0.309322
     4  C   -0.060060
     5  C    0.056792
     6  C   -0.311593
     7  H    0.173937
     8  H    0.162804
     9  H    0.165466
    10  H    0.151069
    11  H    0.163278
    12  H    0.208942
    13  H    0.172963
    14  H    0.193010
    15  H    0.163605
    16  H    0.154196
    17  N   -0.430609
    18  C    0.067535
    19  C    0.063663
    20  C   -0.202066
    21  H    0.206538
    22  C   -0.209046
    23  H    0.245375
    24  C    0.446149
    25  H    0.191917
    26  H    0.211562
    27  N   -0.526299
    28  C   -0.171360
    29  H    0.169776
    30  H    0.230311
    31  C   -0.154726
    32  H    0.166030
    33  H    0.205068
    34  N   -0.816042
    35  S    1.253606
    36  O   -0.612148
    37  O   -0.606769
    38  C    0.085398
    39  C   -0.183549
    40  C   -0.189651
    41  C   -0.171056
    42  C   -0.163713
    43  C   -0.212146
    44  H    0.210412
    45  H    0.140630
    46  H    0.154890
    47  H    0.158587
    48  H    0.152489
    49  O   -0.550166
    50  H    0.448719
    51  C    0.725265
    52  O   -0.722478
    53  O   -0.718102
    54  H    0.444927
    55  C   -0.338534
    56  H    0.148994
    57  H    0.151008
    58  C   -0.091792
    59  H    0.140158
    60  H    0.147623
    61  C   -0.663257
    62  H    0.273251
    63  H    0.196298
    64  H    0.217563
    65  C   -0.293173
    66  H    0.136897
    67  H    0.146240
    68  C   -0.473642
    69  H    0.148964
    70  H    0.154640
    71  H    0.144783
    72  C   -0.331867
    73  H    0.187267
    74  H    0.163028
    75  C   -0.343322
    76  H    0.197067
    77  H    0.171161
 Sum of Mulliken charges =  -0.00000
 Mulliken charges with hydrogens summed into heavy atoms:
               1
     1  C    0.008089
     2  C    0.021166
     3  C    0.018812
     4  C    0.148882
     5  C    0.229755
     6  C    0.045022
    17  N   -0.430609
    18  C    0.274072
    19  C    0.309038
    20  C   -0.010149
    22  C    0.002516
    24  C    0.446149
    27  N   -0.526299
    28  C    0.228726
    31  C    0.216372
    34  N   -0.367323
    35  S    1.253606
    36  O   -0.612148
    37  O   -0.606769
    38  C    0.085398
    39  C    0.026862
    40  C   -0.049021
    41  C   -0.016166
    42  C   -0.005127
    43  C   -0.059657
    49  O   -0.550166
    51  C    0.725265
    52  O   -0.722478
    53  O   -0.273175
    55  C   -0.038532
    58  C    0.195989
    61  C    0.023856
    65  C   -0.010036
    68  C   -0.025255
    72  C    0.018428
    75  C    0.024906
 Electronic spatial extent (au):  <R**2>=          14330.1743
 Charge=              0.0000 electrons
 Dipole moment (field-independent basis, Debye):
    X=             -2.5162    Y=             -1.8998    Z=             -6.3700  Tot=              7.1076
 Quadrupole moment (field-independent basis, Debye-Ang):
   XX=           -205.6356   YY=           -222.8985   ZZ=           -219.8503
   XY=            -12.3341   XZ=             -5.3544   YZ=             10.0192
 Traceless Quadrupole moment (field-independent basis, Debye-Ang):
   XX=             10.4926   YY=             -6.7704   ZZ=             -3.7222
   XY=            -12.3341   XZ=             -5.3544   YZ=             10.0192
 Octapole moment (field-independent basis, Debye-Ang**2):
  XXX=             14.7457  YYY=            -51.3118  ZZZ=             11.1310  XYY=             10.1195
  XXY=            -24.1729  XXZ=            -38.2647  XZZ=            -24.4297  YZZ=             13.0062
  YYZ=             17.8498  XYZ=            -19.3232
 Hexadecapole moment (field-independent basis, Debye-Ang**3):
 XXXX=          -9839.1658 YYYY=          -5426.7920 ZZZZ=          -3543.6618 XXXY=           -203.7521
 XXXZ=            -10.4563 YYYX=            -69.3025 YYYZ=             56.9777 ZZZX=           -106.2252
 ZZZY=             -8.1077 XXYY=          -2554.9978 XXZZ=          -2316.9462 YYZZ=          -1597.3273
 XXYZ=             46.9697 YYXZ=             51.5363 ZZXY=            -50.4957
 N-N= 4.991538984323D+03 E-N=-1.463541008823D+04  KE= 1.976420121635D+03
 No NMR shielding tensors so no spin-rotation constants.
 Leave Link  601 at Thu Feb  7 15:03:52 2019, MaxMem=   104857600 cpu:              18.1 elap:               0.9
 (Enter /home/xinyan/g16/l701.exe)
 ... and contract with generalized density number  0.
 Compute integral first derivatives.
 R6Disp: Adding Grimme-D3 dispersion energy 1st derivatives to the gradient.
 Leave Link  701 at Thu Feb  7 15:03:53 2019, MaxMem=   104857600 cpu:              22.3 elap:               1.0
 (Enter /home/xinyan/g16/l702.exe)
 L702 exits ... SP integral derivatives will be done elsewhere.
 Leave Link  702 at Thu Feb  7 15:03:53 2019, MaxMem=   104857600 cpu:               1.4 elap:               0.1
 (Enter /home/xinyan/g16/l703.exe)
 Integral derivatives from FoFJK, PRISM(SPDF).
 Compute integral first derivatives, UseDBF=F ICtDFT=           0.
 Calling FoFJK, ICntrl=      2127 FMM=T ISym2X=0 I1Cent= 0 IOpClX= 0 NMat=1 NMatS=1 NMatT=0.
 FoFJK:  IHMeth= 1 ICntrl=    2127 DoSepK=F KAlg= 0 I1Cent=           0 FoldK=F
 IRaf=         0 NMat=       1 IRICut=       1 DoRegI=T DoRafI=F ISym2E= 0 IDoP0=0 IntGTp=1.
 FoFCou: FMM=T IPFlag=           0 FMFlag=      100000 FMFlg1=        2001
         NFxFlg=           0 DoJE=F BraDBF=F KetDBF=F FulRan=T
         wScrn=  0.000000 ICntrl=      2127 IOpCl=  0 I1Cent=           0 NGrid=           0
         NMat0=    1 NMatS0=      1 NMatT0=    0 NMatD0=    1 NMtDS0=    0 NMtDT0=    0
 Symmetry not used in FoFCou.
 FMM levels:  10  Number of levels for PrismC:   9
 Leave Link  703 at Thu Feb  7 15:04:28 2019, MaxMem=   104857600 cpu:             822.5 elap:              34.4
 (Enter /home/xinyan/g16/l716.exe)
 Dipole        =-9.89942444D-01-7.47419700D-01-2.50616187D+00
 ***** Axes restored to original set *****
 -------------------------------------------------------------------
 Center     Atomic                   Forces (Hartrees/Bohr)
 Number     Number              X              Y              Z
 -------------------------------------------------------------------
      1        6           0.000000575   -0.000010137   -0.000011966
      2        6           0.000019159   -0.000000058    0.000013010
      3        6           0.000013261    0.000015019   -0.000002288
      4        6           0.000016040    0.000006357   -0.000015206
      5        6           0.000036631    0.000007433   -0.000005477
      6        6          -0.000022111   -0.000016147    0.000005421
      7        1           0.000014515    0.000003944   -0.000029846
      8        1           0.000003535   -0.000001922   -0.000036049
      9        1           0.000013007    0.000001556   -0.000021856
     10        1           0.000004852    0.000026850   -0.000023981
     11        1          -0.000003943   -0.000013657   -0.000011957
     12        1           0.000000679   -0.000038136    0.000014887
     13        1          -0.000009298    0.000008836   -0.000008439
     14        1          -0.000006554   -0.000029817    0.000001680
     15        1           0.000006535   -0.000002282    0.000000215
     16        1           0.000009407    0.000006291   -0.000017270
     17        7           0.000005801    0.000022959   -0.000011089
     18        6           0.000012384   -0.000011192   -0.000013440
     19        6          -0.000007194    0.000014500    0.000003409
     20        6           0.000001292   -0.000006582   -0.000010305
     21        1           0.000011718   -0.000005841   -0.000010730
     22        6           0.000012296    0.000004024    0.000025502
     23        1           0.000003944    0.000009177    0.000004155
     24        6          -0.000002848   -0.000022716    0.000002364
     25        1           0.000015681    0.000007478   -0.000009299
     26        1           0.000014042    0.000023039    0.000019074
     27        7           0.000027019    0.000029284    0.000009262
     28        6           0.000008793    0.000024643    0.000029269
     29        1           0.000010488    0.000030397    0.000031507
     30        1           0.000013691    0.000036063    0.000011027
     31        6           0.000004702    0.000002661   -0.000025689
     32        1           0.000014559   -0.000010198    0.000002698
     33        1          -0.000003724    0.000027272    0.000018232
     34        7           0.000023931    0.000015194    0.000019187
     35       16           0.000004003    0.000003484   -0.000147431
     36        8           0.000005958   -0.000018459   -0.000019853
     37        8           0.000012944   -0.000016329    0.000005669
     38        6           0.000044120    0.000004774    0.000015888
     39        6           0.000016956    0.000005615    0.000019966
     40        6          -0.000008325    0.000018515    0.000013759
     41        6          -0.000012116    0.000006369    0.000025583
     42        6          -0.000008420   -0.000007048    0.000044396
     43        6          -0.000013734   -0.000000246    0.000006340
     44        1          -0.000064044    0.000043219   -0.000005141
     45        1          -0.000029038    0.000049451    0.000031755
     46        1          -0.000025957    0.000023632    0.000042662
     47        1          -0.000041330    0.000009446    0.000053747
     48        1          -0.000030341   -0.000003730    0.000059961
     49        8           0.000007406    0.000070965   -0.000060250
     50        1          -0.000056684   -0.000054927    0.000104318
     51        6          -0.000072349   -0.000061735    0.000044523
     52        8          -0.000027133    0.000006919   -0.000011466
     53        8          -0.000074756   -0.000066380   -0.000021862
     54        1           0.000060933    0.000101539    0.000030516
     55        6          -0.000000088    0.000175438    0.000041910
     56        1          -0.000014214   -0.000060482   -0.000080997
     57        1           0.000051269   -0.000103611   -0.000001966
     58        6          -0.000021074    0.000039564    0.000044153
     59        1           0.000011332    0.000024439   -0.000000449
     60        1          -0.000040076   -0.000072793    0.000032089
     61        6          -0.000022905    0.000014574    0.000019346
     62        1          -0.000019729   -0.000008695   -0.000011200
     63        1          -0.000038687   -0.000006401   -0.000010005
     64        1          -0.000018182   -0.000005129    0.000003020
     65        6          -0.000260832    0.000770142    0.000323591
     66        1          -0.000196655   -0.000295878   -0.000400642
     67        1           0.000411301   -0.000444516    0.000062195
     68        6          -0.000158626    0.000378175    0.000151811
     69        1           0.000025337   -0.000090095   -0.000036004
     70        1           0.000030653   -0.000284818   -0.000284510
     71        1           0.000256548   -0.000435421   -0.000092419
     72        6           0.000008854    0.000035790    0.000008686
     73        1          -0.000003774    0.000046645    0.000017388
     74        1           0.000010931    0.000022313    0.000043714
     75        6          -0.000012886   -0.000022365    0.000010731
     76        1           0.000037906    0.000048760   -0.000013233
     77        1           0.000012637    0.000004998   -0.000006299
 -------------------------------------------------------------------
 Cartesian Forces:  Max     0.000770142 RMS     0.000099304
 Z-matrix is all fixed cartesians, so copy forces.
 Leave Link  716 at Thu Feb  7 15:04:28 2019, MaxMem=   104857600 cpu:               2.4 elap:               0.1
 (Enter /home/xinyan/g16/l103.exe)

 GradGradGradGradGradGradGradGradGradGradGradGradGradGradGradGradGradGrad
 Berny optimization.
 Search for a local minimum.
 Step number   1 out of a maximum of    2
 All quantities printed in internal units (Hartrees-Bohrs-Radians)
 Second derivative matrix not updated -- first step.
 ITU=  0
     Eigenvalues ---   -0.00000   0.00000   0.00000   0.00000   0.00000
     Eigenvalues ---    0.00000   0.00006   0.00012   0.00018   0.00021
     Eigenvalues ---    0.00037   0.00038   0.00084   0.00095   0.00115
     Eigenvalues ---    0.00136   0.00141   0.00204   0.00234   0.00294
     Eigenvalues ---    0.00390   0.00406   0.00450   0.00498   0.00591
     Eigenvalues ---    0.00605   0.00619   0.00690   0.00709   0.00848
     Eigenvalues ---    0.00964   0.01124   0.01163   0.01468   0.01656
     Eigenvalues ---    0.01679   0.01888   0.01940   0.02043   0.02158
     Eigenvalues ---    0.02295   0.02304   0.02443   0.02536   0.02874
     Eigenvalues ---    0.02966   0.03069   0.03106   0.03220   0.03448
     Eigenvalues ---    0.03550   0.03715   0.03903   0.04201   0.04323
     Eigenvalues ---    0.04367   0.04806   0.04843   0.04873   0.04925
     Eigenvalues ---    0.05025   0.05069   0.05103   0.05112   0.05166
     Eigenvalues ---    0.05187   0.05266   0.05374   0.05470   0.05604
     Eigenvalues ---    0.05645   0.05666   0.05706   0.05743   0.05790
     Eigenvalues ---    0.06017   0.06156   0.06277   0.06509   0.06568
     Eigenvalues ---    0.06834   0.06851   0.06972   0.07028   0.07080
     Eigenvalues ---    0.07154   0.07248   0.07266   0.07329   0.07383
     Eigenvalues ---    0.07646   0.07797   0.07861   0.07958   0.08083
     Eigenvalues ---    0.08467   0.08567   0.08805   0.09022   0.09721
     Eigenvalues ---    0.09766   0.10161   0.10462   0.11256   0.11494
     Eigenvalues ---    0.11839   0.12125   0.12607   0.12855   0.12904
     Eigenvalues ---    0.12939   0.13029   0.13356   0.13669   0.13937
     Eigenvalues ---    0.14130   0.14434   0.14650   0.15635   0.15765
     Eigenvalues ---    0.16035   0.16108   0.16887   0.16940   0.16979
     Eigenvalues ---    0.17249   0.17304   0.17762   0.17881   0.19568
     Eigenvalues ---    0.19683   0.20336   0.20611   0.21579   0.21698
     Eigenvalues ---    0.23065   0.23364   0.23815   0.24798   0.26390
     Eigenvalues ---    0.27462   0.28622   0.29545   0.30052   0.30649
     Eigenvalues ---    0.31430   0.32262   0.34024   0.34773   0.36310
     Eigenvalues ---    0.36714   0.39442   0.39983   0.41227   0.43085
     Eigenvalues ---    0.43549   0.44550   0.48129   0.49027   0.50148
     Eigenvalues ---    0.52911   0.56799   0.57619   0.60185   0.64882
     Eigenvalues ---    0.65369   0.66346   0.67414   0.68234   0.68776
     Eigenvalues ---    0.70494   0.77661   0.78176   0.78379   0.81162
     Eigenvalues ---    0.82988   0.83330   0.85507   0.86640   0.87285
     Eigenvalues ---    0.87914   0.88678   0.90539   0.91308   0.93970
     Eigenvalues ---    0.94434   0.94778   0.94966   0.95631   0.96334
     Eigenvalues ---    0.97862   0.97937   0.99557   1.00358   1.00596
     Eigenvalues ---    1.00771   1.03882   1.04282   1.04578   1.06117
     Eigenvalues ---    1.06311   1.06786   1.07145   1.08801   1.09101
     Eigenvalues ---    1.12967   1.15651   1.15768   1.16846   1.19851
     Eigenvalues ---    1.21205   1.24153   1.26090   1.27738   1.37149
     Eigenvalues ---    1.47261   1.53553   1.56905   1.58255   1.58845
     Eigenvalues ---    1.59590   1.67091   1.72978   1.84153   2.34034
 Eigenvalue     1 is  -2.22D-16 should be greater than     0.000000 Eigenvector:
                          Y53       Y54       Y59       Y56       Y49
   1                    0.13555   0.13555   0.13555   0.13555   0.13555
                          Y57       Y58       Y51       Y60       Y55
   1                    0.13555   0.13555   0.13555   0.13555   0.13555
 Eigenvalue     2 is   5.42D-08 Eigenvector:
                          X45       Y46       X46       X40       Y73
   1                    0.16249  -0.14941   0.14639   0.14255   0.13555
                          X52       X44       X41       Y77       Y74
   1                    0.13521   0.13385   0.13360   0.13122   0.12910
 Eigenvalue     3 is   6.68D-08 Eigenvector:
                          Y46       X54       Z47       Z46       X53
   1                    0.20574  -0.19100  -0.18564  -0.17239  -0.17204
                          Y47       Y41       Z42       Z41       Z69
   1                    0.17012   0.16370  -0.15914  -0.15187   0.14548
 Eigenvalue     4 is   1.58D-07 Eigenvector:
                          Z77       Z76       Z57       Z71       Z54
   1                    0.18516   0.18009  -0.17170  -0.16740  -0.16457
                          Z53       Z75       Y64       Z33       Z66
   1                   -0.16394   0.15981  -0.15385   0.14905  -0.14370
 Eigenvalue     5 is   2.51D-07 Eigenvector:
                          Z47       Y46       Y64       Y9        Y47
   1                    0.18112   0.17639   0.16142  -0.15901   0.14926
                          Z42       Z48       Y7        Y62       Y71
   1                    0.14526   0.14211  -0.14166   0.13925  -0.13884
 Eigenvalue     6 is   4.63D-07 Eigenvector:
                          Y69       Z54       Y48       Y59       Y71
   1                    0.25772  -0.24453  -0.23256  -0.23036   0.20622
                          Y45       Y66       Z53       Z70       Y68
   1                    0.18613   0.18411  -0.18122   0.18006   0.17744
 Eigenvalue     7 is   6.44D-05 Eigenvector:
                          X69       X45       X46       X70       Z70
   1                    0.27222  -0.24110  -0.22727   0.22081   0.21342
                          Z69       X68       X67       X40       X41
   1                    0.20903   0.20714   0.20555  -0.18528  -0.17779
 Quadratic step=2.795D+00 exceeds max=3.000D-01 adjusted using Lamda=-9.827D-04.
 Angle between NR and scaled steps=  19.33 degrees.
 Angle between quadratic step and forces=  75.93 degrees.
 Linear search not attempted -- first point.
 B after Tr=    -0.000799    0.000893    0.001095
         Rot=    1.000000   -0.000124    0.000066   -0.000101 Ang=  -0.02 deg.
 Variable       Old X    -DE/DX   Delta X   Delta X   Delta X     New X
                                 (Linear)    (Quad)   (Total)
    X1       -9.25138   0.00000   0.00000   0.00356   0.00278  -9.24860
    Y1        0.46187  -0.00001   0.00000  -0.00401  -0.00478   0.45709
    Z1       -0.82137  -0.00001   0.00000  -0.01219  -0.01221  -0.83358
    X2       -9.60194   0.00002   0.00000   0.00888   0.00879  -9.59315
    Y2       -1.93391  -0.00000   0.00000  -0.00238  -0.00283  -1.93673
    Z2       -2.40725   0.00001   0.00000  -0.01590  -0.01656  -2.42380
    X3       -7.08341   0.00001   0.00000   0.01209   0.01233  -7.07108
    Y3       -2.78651   0.00002   0.00000  -0.00022   0.00013  -2.78638
    Z3       -3.56085  -0.00000   0.00000  -0.01060  -0.01114  -3.57198
    X4       -5.20347   0.00002   0.00000   0.00719   0.00723  -5.19624
    Y4       -3.24821   0.00001   0.00000  -0.00089  -0.00069  -3.24891
    Z4       -1.42812  -0.00002   0.00000  -0.00638  -0.00678  -1.43490
    X5       -4.76621   0.00004   0.00000   0.00248   0.00182  -4.76439
    Y5       -0.80438   0.00001   0.00000  -0.00154  -0.00164  -0.80602
    Z5        0.12886  -0.00001   0.00000  -0.00413  -0.00387   0.12499
    X6       -7.27648  -0.00002   0.00000  -0.00069  -0.00168  -7.27816
    Y6        0.09061  -0.00002   0.00000  -0.00505  -0.00594   0.08468
    Z6        1.26289   0.00001   0.00000  -0.00833  -0.00818   1.25471
    X7       -7.31519   0.00001   0.00000   0.01561   0.01635  -7.29884
    Y7       -4.50180   0.00000   0.00000   0.00066   0.00125  -4.50055
    Z7       -4.69563  -0.00003   0.00000  -0.01269  -0.01368  -4.70931
    X8      -10.35485   0.00000   0.00000   0.00640   0.00647 -10.34838
    Y8       -3.45587  -0.00000   0.00000  -0.00412  -0.00501  -3.46088
    Z8       -1.21496  -0.00004   0.00000  -0.01972  -0.02086  -1.23582
    X9      -10.98126   0.00001   0.00000   0.01257   0.01262 -10.96864
    Y9       -1.60799   0.00000   0.00000  -0.00122  -0.00157  -1.60955
    Z9       -3.91362  -0.00002   0.00000  -0.01903  -0.01979  -3.93341
   X10       -8.64174   0.00000   0.00000   0.00484   0.00391  -8.63782
   Y10        2.00957   0.00003   0.00000  -0.00177  -0.00211   2.00746
   Z10       -2.06114  -0.00002   0.00000  -0.00892  -0.00847  -2.06962
   X11      -11.05650  -0.00000   0.00000   0.00124   0.00024 -11.05627
   Y11        1.02865  -0.00001   0.00000  -0.00671  -0.00805   1.02061
   Z11        0.01593  -0.00001   0.00000  -0.01533  -0.01545   0.00048
   X12       -5.94788   0.00000   0.00000   0.00455   0.00473  -5.94315
   Y12       -4.70742  -0.00004   0.00000  -0.00151  -0.00177  -4.70919
   Z12       -0.16605   0.00001   0.00000  -0.00844  -0.00930  -0.17535
   X13       -4.13544  -0.00001   0.00000   0.00387   0.00310  -4.13234
   Y13        0.65358   0.00001   0.00000   0.00015   0.00051   0.65409
   Z13       -1.20462  -0.00001   0.00000  -0.00165  -0.00095  -1.20557
   X14       -7.95297  -0.00001   0.00000  -0.00246  -0.00334  -7.95631
   Y14       -1.29953  -0.00003   0.00000  -0.00748  -0.00884  -1.30837
   Z14        2.63887   0.00000   0.00000  -0.01154  -0.01182   2.62705
   X15       -6.93441   0.00001   0.00000  -0.00413  -0.00561  -6.94002
   Y15        1.87266  -0.00000   0.00000  -0.00606  -0.00712   1.86554
   Z15        2.25832   0.00000   0.00000  -0.00529  -0.00465   2.25366
   X16       -6.39771   0.00001   0.00000   0.01426   0.01436  -6.38335
   Y16       -1.28127   0.00001   0.00000   0.00117   0.00196  -1.27931
   Z16       -4.81491  -0.00002   0.00000  -0.00779  -0.00786  -4.82277
   X17       -2.69785   0.00001   0.00000   0.00938   0.00972  -2.68813
   Y17       -4.16059   0.00002   0.00000  -0.00054   0.00037  -4.16022
   Z17       -2.25798  -0.00001   0.00000  -0.00011  -0.00040  -2.25838
   X18       -1.36542   0.00001   0.00000   0.01032   0.01063  -1.35479
   Y18       -2.83548  -0.00001   0.00000  -0.00569  -0.00408  -2.83956
   Z18       -4.01051  -0.00001   0.00000  -0.00329  -0.00308  -4.01359
   X19       -1.41646  -0.00001   0.00000   0.00885   0.00929  -1.40718
   Y19       -5.70210   0.00001   0.00000   0.00697   0.00774  -5.69435
   Z19       -0.64961   0.00000   0.00000   0.00751   0.00701  -0.64260
   X20        1.19971   0.00000   0.00000   0.01061   0.01095   1.21066
   Y20       -2.93798  -0.00001   0.00000  -0.00378  -0.00161  -2.93959
   Z20       -4.15020  -0.00001   0.00000   0.00040   0.00092  -4.14927
   X21       -2.46006   0.00001   0.00000   0.01075   0.01098  -2.44908
   Y21       -1.63148  -0.00001   0.00000  -0.01152  -0.00982  -1.64130
   Z21       -5.25202  -0.00001   0.00000  -0.00933  -0.00897  -5.26099
   X22        1.14833   0.00001   0.00000   0.00911   0.00958   1.15791
   Y22       -5.87338   0.00000   0.00000   0.01050   0.01179  -5.86159
   Z22       -0.64714   0.00003   0.00000   0.01243   0.01223  -0.63491
   X23       -2.56077   0.00000   0.00000   0.00790   0.00835  -2.55242
   Y23       -6.68698   0.00001   0.00000   0.01086   0.01105  -6.67593
   Z23        0.73679   0.00000   0.00000   0.00949   0.00860   0.74538
   X24        2.58533  -0.00000   0.00000   0.00958   0.00995   2.59528
   Y24       -4.29752  -0.00002   0.00000   0.00552   0.00750  -4.29002
   Z24       -2.27754   0.00000   0.00000   0.00798   0.00836  -2.26917
   X25        2.15595   0.00002   0.00000   0.01134   0.01165   2.16760
   Y25       -1.83256   0.00001   0.00000  -0.00834  -0.00562  -1.83819
   Z25       -5.57877  -0.00001   0.00000  -0.00269  -0.00177  -5.58054
   X26        2.03620   0.00001   0.00000   0.00844   0.00895   2.04515
   Y26       -7.02785   0.00002   0.00000   0.01755   0.01865  -7.00920
   Z26        0.78454   0.00002   0.00000   0.01853   0.01816   0.80270
   X27        5.07907   0.00003   0.00000   0.00910   0.00940   5.08847
   Y27       -4.10556   0.00003   0.00000   0.00958   0.01200  -4.09356
   Z27       -2.06827   0.00001   0.00000   0.01062   0.01138  -2.05688
   X28        6.41139   0.00001   0.00000   0.00696   0.00714   6.41852
   Y28       -5.00564   0.00002   0.00000   0.02348   0.02562  -4.98002
   Z28        0.19956   0.00003   0.00000   0.01744   0.01816   0.21771
   X29        6.18471   0.00001   0.00000   0.00806   0.00862   6.19333
   Y29       -7.04785   0.00003   0.00000   0.02462   0.02665  -7.02120
   Z29        0.41750   0.00003   0.00000   0.02908   0.02926   0.44676
   X30        5.62694   0.00001   0.00000   0.00437   0.00413   5.63107
   Y30       -4.00749   0.00004   0.00000   0.03254   0.03411  -3.97337
   Z30        1.84560   0.00001   0.00000   0.01071   0.01157   1.85717
   X31        6.48373   0.00000   0.00000   0.00864   0.00870   6.49242
   Y31       -2.06148   0.00000   0.00000   0.00412   0.00714  -2.05434
   Z31       -3.31651  -0.00003   0.00000   0.00122   0.00267  -3.31384
   X32        6.98409   0.00001   0.00000   0.00987   0.01030   6.99438
   Y32       -2.62266  -0.00001   0.00000  -0.00554  -0.00194  -2.62460
   Z32       -5.24820   0.00000   0.00000   0.00432   0.00570  -5.24250
   X33        5.29807  -0.00000   0.00000   0.00779   0.00752   5.30559
   Y33       -0.36989   0.00003   0.00000   0.00341   0.00620  -0.36369
   Z33       -3.35449   0.00002   0.00000  -0.00777  -0.00606  -3.36055
   X34       -2.68105   0.00002   0.00000  -0.00153  -0.00237  -2.68342
   Y34       -1.04436   0.00002   0.00000  -0.00152  -0.00164  -1.04600
   Z34        1.90337   0.00002   0.00000   0.00050   0.00098   1.90435
   X35       -2.83380   0.00000   0.00000  -0.00607  -0.00692  -2.84071
   Y35       -2.71059   0.00000   0.00000  -0.00530  -0.00609  -2.71667
   Z35        4.49010  -0.00015   0.00000  -0.00256  -0.00251   4.48759
   X36       -5.10857   0.00001   0.00000  -0.00314  -0.00365  -5.11222
   Y36       -4.28917  -0.00002   0.00000  -0.00891  -0.01013  -4.29930
   Z36        4.37738  -0.00002   0.00000  -0.01100  -0.01165   4.36573
   X37       -0.40382   0.00001   0.00000  -0.00500  -0.00564  -0.40946
   Y37       -3.98298  -0.00002   0.00000  -0.00173  -0.00212  -3.98510
   Z37        4.86877   0.00001   0.00000   0.00276   0.00281   4.87158
   X38       -1.35611   0.00004   0.00000  -0.00573  -0.00755  -1.36365
   Y38        4.66388   0.00000   0.00000   0.01428   0.01477   4.67865
   Z38        0.49809   0.00002   0.00000   0.01390   0.01597   0.51406
   X39       -0.42360   0.00002   0.00000  -0.01130  -0.01263  -0.43623
   Y39        3.79907   0.00001   0.00000   0.02116   0.02242   3.82149
   Z39       -1.83024   0.00002   0.00000   0.00913   0.01111  -1.81912
   X40       -1.86297  -0.00001   0.00000  -0.01957  -0.02066  -1.88363
   Y40        4.03160   0.00002   0.00000   0.02077   0.02227   4.05387
   Z40       -4.02330   0.00001   0.00000   0.01458   0.01643  -4.00688
   X41       -4.26498  -0.00001   0.00000  -0.02300  -0.02431  -4.28929
   Y41        5.11619   0.00001   0.00000   0.01248   0.01348   5.12967
   Z41       -3.95601   0.00003   0.00000   0.02506   0.02685  -3.92916
   X42       -5.21610  -0.00001   0.00000  -0.01804  -0.01983  -5.23592
   Y42        5.97218  -0.00001   0.00000   0.00457   0.00481   5.97699
   Z42       -1.65759   0.00004   0.00000   0.03008   0.03195  -1.62564
   X43       -3.76492  -0.00001   0.00000  -0.00945  -0.01148  -3.77640
   Y43        5.74781  -0.00000   0.00000   0.00576   0.00575   5.75356
   Z43        0.53217   0.00001   0.00000   0.02448   0.02650   0.55866
   X44        1.38817  -0.00006   0.00000  -0.00852  -0.00965   1.37852
   Y44        2.84287   0.00004   0.00000   0.02708   0.02871   2.87158
   Z44       -1.86724  -0.00001   0.00000   0.00091   0.00290  -1.86434
   X45       -1.08890  -0.00003   0.00000  -0.02342  -0.02413  -1.11303
   Y45        3.37131   0.00005   0.00000   0.02719   0.02929   3.40060
   Z45       -5.81025   0.00003   0.00000   0.01061   0.01240  -5.79785
   X46       -5.37472  -0.00003   0.00000  -0.02952  -0.03064  -5.40536
   Y46        5.30363   0.00002   0.00000   0.01226   0.01346   5.31709
   Z46       -5.67337   0.00004   0.00000   0.02928   0.03098  -5.64240
   X47       -7.08167  -0.00004   0.00000  -0.02083  -0.02281  -7.10448
   Y47        6.82499   0.00001   0.00000  -0.00230  -0.00246   6.82253
   Z47       -1.56513   0.00005   0.00000   0.03838   0.04022  -1.52491
   X48       -4.52249  -0.00003   0.00000  -0.00583  -0.00824  -4.53073
   Y48        6.44370  -0.00000   0.00000  -0.00045  -0.00105   6.44265
   Z48        2.31299   0.00006   0.00000   0.02855   0.03063   2.34362
   X49        1.03791   0.00001   0.00000   0.00058  -0.00124   1.03667
   Y49        2.41191   0.00007   0.00000   0.01582   0.01593   2.42784
   Z49        3.99503  -0.00006   0.00000   0.00986   0.01170   4.00673
   X50       -0.81364  -0.00006   0.00000  -0.00058  -0.00145  -0.81509
   Y50       -0.57064  -0.00005   0.00000   0.00102   0.00142  -0.56922
   Z50        1.35745   0.00010   0.00000   0.00683   0.00767   1.36512
   X51        3.21459  -0.00007   0.00000  -0.01374  -0.01512   3.19947
   Y51        1.06263  -0.00006   0.00000   0.00076   0.00161   1.06424
   Z51        2.79721   0.00004   0.00000   0.00077   0.00256   2.79977
   X52        2.49374  -0.00003   0.00000  -0.03217  -0.03305   2.46069
   Y52       -0.03313   0.00001   0.00000   0.00080   0.00202  -0.03111
   Z52        0.68181  -0.00001   0.00000   0.00701   0.00842   0.69024
   X53        3.89964  -0.00007   0.00000  -0.01388  -0.01518   3.88446
   Y53       -0.65543  -0.00007   0.00000   0.00044   0.00095  -0.65449
   Z53        4.73087  -0.00002   0.00000   0.00049   0.00194   4.73281
   X54        2.58380   0.00006   0.00000  -0.02253  -0.02357   2.56023
   Y54       -1.94375   0.00010   0.00000   0.00949   0.00973  -1.93402
   Z54        4.71500   0.00003   0.00000   0.01142   0.01238   4.72738
   X55        5.49024  -0.00000   0.00000  -0.00090  -0.00264   5.48761
   Y55        2.90517   0.00018   0.00000  -0.01589  -0.01454   2.89063
   Z55        2.65977   0.00004   0.00000  -0.01588  -0.01334   2.64643
   X56        5.37177  -0.00001   0.00000   0.02150   0.01929   5.39106
   Y56        4.22148  -0.00006   0.00000  -0.01398  -0.01305   4.20843
   Z56        4.25878  -0.00008   0.00000  -0.01609  -0.01323   4.24555
   X57        7.17384   0.00005   0.00000  -0.00812  -0.00966   7.16417
   Y57        1.75070  -0.00010   0.00000  -0.03041  -0.02882   1.72188
   Z57        3.02058  -0.00000   0.00000  -0.02711  -0.02464   2.99594
   X58        0.18478  -0.00002   0.00000   0.00334   0.00120   0.18598
   Y58        4.68852   0.00004   0.00000   0.01581   0.01601   4.70454
   Z58        2.94884   0.00004   0.00000   0.00807   0.01035   2.95919
   X59       -1.03315   0.00001   0.00000   0.01148   0.00897  -1.02418
   Y59        5.53240   0.00002   0.00000   0.02279   0.02238   5.55478
   Z59        4.40106  -0.00000   0.00000   0.01080   0.01313   4.41419
   X60        1.76963  -0.00004   0.00000   0.00631   0.00393   1.77357
   Y60        6.01090  -0.00007   0.00000   0.01010   0.01068   6.02158
   Z60        2.69751   0.00003   0.00000  -0.00105   0.00177   2.69928
   X61       -3.16351  -0.00002   0.00000  -0.01695  -0.01858  -3.18209
   Y61       -0.48088   0.00001   0.00000  -0.00827  -0.00974  -0.49062
   Z61        6.98072   0.00002   0.00000  -0.00119  -0.00064   6.98009
   X62       -1.51611  -0.00002   0.00000  -0.01903  -0.02090  -1.53700
   Y62        0.76067  -0.00001   0.00000  -0.00499  -0.00611   0.75456
   Z62        6.85795  -0.00001   0.00000   0.00395   0.00503   6.86298
   X63       -4.91956  -0.00004   0.00000  -0.01825  -0.02004  -4.93960
   Y63        0.55909  -0.00001   0.00000  -0.01139  -0.01315   0.54595
   Z63        6.68356  -0.00001   0.00000  -0.00489  -0.00431   6.67925
   X64       -3.21777  -0.00002   0.00000  -0.01948  -0.02113  -3.23890
   Y64       -1.52722  -0.00001   0.00000  -0.00983  -0.01175  -1.53897
   Z64        8.75686   0.00000   0.00000  -0.00218  -0.00190   8.75496
   X65        5.87574  -0.00026   0.00000  -0.00561  -0.00731   5.86844
   Y65        4.34964   0.00077   0.00000  -0.02188  -0.01984   4.32980
   Z65        0.19407   0.00032   0.00000  -0.02013  -0.01718   0.17689
   X66        5.94738  -0.00020   0.00000  -0.05377  -0.05498   5.89240
   Y66        3.00347  -0.00030   0.00000  -0.02352  -0.02109   2.98239
   Z66       -1.37623  -0.00040   0.00000  -0.02269  -0.02007  -1.39630
   X67        4.27012   0.00041   0.00000   0.01345   0.01155   4.28167
   Y67        5.59353  -0.00044   0.00000   0.00684   0.00865   5.60219
   Z67       -0.21437   0.00006   0.00000   0.00122   0.00426  -0.21011
   X68        8.29522  -0.00016   0.00000   0.02688   0.02487   8.32009
   Y68        5.92429   0.00038   0.00000  -0.07082  -0.06830   5.85600
   Z68        0.25234   0.00015   0.00000  -0.05218  -0.04853   0.20381
   X69        8.59073   0.00003   0.00000   0.02187   0.01990   8.61063
   Y69        6.94631  -0.00009   0.00000  -0.07306  -0.07004   6.87627
   Z69       -1.52127  -0.00004   0.00000  -0.05422  -0.05029  -1.57155
   X70        8.22813   0.00003   0.00000   0.07744   0.07494   8.30308
   Y70        7.31762  -0.00028   0.00000  -0.07369  -0.07155   7.24608
   Z70        1.78322  -0.00028   0.00000  -0.04859  -0.04460   1.73862
   X71        9.95132   0.00026   0.00000   0.00736   0.00556   9.95688
   Y71        4.72687  -0.00044   0.00000  -0.10744  -0.10467   4.62220
   Z71        0.58462  -0.00009   0.00000  -0.07984  -0.07628   0.50835
   X72        9.13838   0.00001   0.00000   0.00712   0.00721   9.14559
   Y72       -4.22902   0.00004   0.00000   0.02225   0.02506  -4.20395
   Z72       -0.30997   0.00001   0.00000   0.01647   0.01774  -0.29223
   X73       10.23752  -0.00000   0.00000   0.00449   0.00432  10.24184
   Y73       -4.09436   0.00005   0.00000   0.03388   0.03648  -4.05787
   Z73        1.43013   0.00002   0.00000   0.01721   0.01867   1.44879
   X74       10.05074   0.00001   0.00000   0.00982   0.01035  10.06109
   Y74       -5.60102   0.00002   0.00000   0.01492   0.01822  -5.58280
   Z74       -1.56362   0.00004   0.00000   0.02652   0.02757  -1.53604
   X75        8.81208  -0.00001   0.00000   0.00791   0.00767   8.81975
   Y75       -1.68121  -0.00002   0.00000   0.01380   0.01688  -1.66434
   Z75       -1.63964   0.00001   0.00000   0.00010   0.00195  -1.63769
   X76        8.38086   0.00004   0.00000   0.00803   0.00730   8.38816
   Y76       -0.23204   0.00005   0.00000   0.02303   0.02568  -0.20636
   Z76       -0.23266  -0.00001   0.00000  -0.00935  -0.00719  -0.23986
   X77       10.46904   0.00001   0.00000   0.00856   0.00834  10.47738
   Y77       -1.09022   0.00000   0.00000   0.00653   0.01021  -1.08001
   Z77       -2.71835  -0.00001   0.00000  -0.00293  -0.00071  -2.71906
         Item               Value     Threshold  Converged?
 Maximum Force            0.000770     0.000450     NO 
 RMS     Force            0.000099     0.000300     YES
 Maximum Displacement     0.104666     0.001800     NO 
 RMS     Displacement     0.019680     0.001200     NO 
 Predicted change in Energy=-1.022466D-04
 GradGradGradGradGradGradGradGradGradGradGradGradGradGradGradGradGradGrad

 Leave Link  103 at Thu Feb  7 15:04:29 2019, MaxMem=   104857600 cpu:              30.6 elap:               1.3
 (Enter /home/xinyan/g16/l9999.exe)
 1\1\GINC-TSE4\Force\RM062X\6-31G(d)\C27H41N3O5S1\STEVETSE\07-Feb-2019\
 0\\#p M062X/6-31G* em=gd3 force int=ultrafine\\Title\\0,1\C,-4.89562,0
 .24441,-0.43465\C,-5.08113,-1.02338,-1.27386\C,-3.74838,-1.47456,-1.88
 432\C,-2.75356,-1.71888,-0.75573\C,-2.52217,-0.42566,0.06819\C,-3.8505
 5,0.04795,0.66829\H,-3.87103,-2.38225,-2.48482\H,-5.47955,-1.82877,-0.
 64293\H,-5.81103,-0.85091,-2.071\H,-4.57301,1.06342,-1.09071\H,-5.8508
 5,0.54434,0.00843\H,-3.14748,-2.49106,-0.08787\H,-2.18838,0.34586,-0.6
 3746\H,-4.20853,-0.68768,1.39643\H,-3.66953,0.99097,1.19505\H,-3.38552
 ,-0.67802,-2.54794\N,-1.42764,-2.20169,-1.19487\C,-0.72255,-1.50047,-2
 .12227\C,-0.74956,-3.01742,-0.34376\C,0.63486,-1.55471,-2.19619\H,-1.3
 0181,-0.86334,-2.77925\C,0.60767,-3.10806,-0.34245\H,-1.3551,-3.5386,0
 .38989\C,1.3681,-2.27415,-1.20522\H,1.14088,-0.96975,-2.95216\H,1.0775
 1,-3.71898,0.41516\N,2.68773,-2.17257,-1.09448\C,3.39276,-2.64887,0.10
 56\H,3.27281,-3.72956,0.22093\H,2.97765,-2.12067,0.97665\C,3.43104,-1.
 09089,-1.75502\H,3.69582,-1.38785,-2.77723\H,2.80362,-0.19574,-1.77512
 \N,-1.41875,-0.55265,1.00722\S,-1.49958,-1.43438,2.37606\O,-2.70334,-2
 .26973,2.31641\O,-0.21369,-2.1077,2.57644\C,-0.71762,2.46802,0.26358\C
 ,-0.22416,2.01038,-0.96852\C,-0.98584,2.13343,-2.12904\C,-2.25693,2.70
 737,-2.09343\C,-2.76024,3.16034,-0.87716\C,-1.99231,3.04161,0.28161\H,
 0.73459,1.50438,-0.9881\H,-0.57622,1.78402,-3.07465\H,-2.84418,2.80656
 ,-3.00222\H,-3.74746,3.61163,-0.82823\H,-2.3932,3.40986,1.22398\O,0.54
 924,1.27633,2.11408\H,-0.43056,-0.30197,0.71833\C,1.70109,0.56232,1.48
 022\O,1.31963,-0.01753,0.3608\O,2.0636,-0.34684,2.50347\H,1.36729,-1.0
 2859,2.49507\C,2.90531,1.53735,1.40749\H,2.84262,2.23391,2.25365\H,3.7
 9623,0.92643,1.59842\C,0.09778,2.48106,1.56046\H,-0.54672,2.92762,2.32
 894\H,0.93645,3.18083,1.42746\C,-1.67406,-0.25447,3.69404\H,-0.80229,0
 .40253,3.62907\H,-2.60332,0.29586,3.53679\H,-1.70277,-0.80817,4.63393\
 C,3.10931,2.30173,0.1027\H,3.14722,1.58937,-0.72827\H,2.25965,2.95997,
 -0.11344\C,4.38964,3.135,0.13353\H,4.54602,3.67583,-0.80502\H,4.35414,
 3.87232,0.94364\H,5.26601,2.50135,0.30937\C,4.83582,-2.2379,-0.16403\H
 ,5.41746,-2.16664,0.75679\H,5.31862,-2.96393,-0.82743\C,4.66315,-0.889
 66,-0.86766\H,4.43496,-0.12279,-0.12312\H,5.53998,-0.57692,-1.43849\\V
 ersion=ES64L-G16RevA.03\State=1-A\HF=-1991.3585641\RMSD=9.436e-09\RMSF
 =9.930e-05\Dipole=-0.9464609,-0.6832352,-2.5410374\Quadrupole=7.853928
 7,-5.2824895,-2.5714393,-9.2815604,-3.9629212,7.2386774\PG=C01 [X(C27H
 41N3O5S1)]\\@


 Some scientists claim that hydrogen, because it is so
 plentiful, is the basic building block of the universe. 
 I dispute that. I say that stupidity is far more
 abundant than hydrogen, and THAT is the basic building 
 block of the universe.
                   --Frank Zappa
 Job cpu time:       0 days  1 hours 18 minutes 32.2 seconds.
 Elapsed time:       0 days  0 hours  3 minutes 17.5 seconds.
 File lengths (MBytes):  RWF=    216 Int=      0 D2E=      0 Chk=     25 Scr=      1
 Normal termination of Gaussian 16 at Thu Feb  7 15:04:29 2019.
