 Entering Gaussian System, Link 0=g16
 Input=C27N3H41SO5-293.gjf
 Output=C27N3H41SO5-293.log
 Initial command:
 /home/xinyan/g16/l1.exe "/local/home/tmp/Gau-19111.inp" -scrdir="/local/home/tmp/"
 Entering Link 1 = /home/xinyan/g16/l1.exe PID=     19112.
  
 Copyright (c) 1988,1990,1992,1993,1995,1998,2003,2009,2016,
            Gaussian, Inc.  All Rights Reserved.
  
 This is part of the Gaussian(R) 16 program.  It is based on
 the Gaussian(R) 09 system (copyright 2009, Gaussian, Inc.),
 the Gaussian(R) 03 system (copyright 2003, Gaussian, Inc.),
 the Gaussian(R) 98 system (copyright 1998, Gaussian, Inc.),
 the Gaussian(R) 94 system (copyright 1995, Gaussian, Inc.),
 the Gaussian 92(TM) system (copyright 1992, Gaussian, Inc.),
 the Gaussian 90(TM) system (copyright 1990, Gaussian, Inc.),
 the Gaussian 88(TM) system (copyright 1988, Gaussian, Inc.),
 the Gaussian 86(TM) system (copyright 1986, Carnegie Mellon
 University), and the Gaussian 82(TM) system (copyright 1983,
 Carnegie Mellon University). Gaussian is a federally registered
 trademark of Gaussian, Inc.
  
 This software contains proprietary and confidential information,
 including trade secrets, belonging to Gaussian, Inc.
  
 This software is provided under written license and may be
 used, copied, transmitted, or stored only in accord with that
 written license.
  
 The following legend is applicable only to US Government
 contracts under FAR:
  
                    RESTRICTED RIGHTS LEGEND
  
 Use, reproduction and disclosure by the US Government is
 subject to restrictions as set forth in subparagraphs (a)
 and (c) of the Commercial Computer Software - Restricted
 Rights clause in FAR 52.227-19.
  
 Gaussian, Inc.
 340 Quinnipiac St., Bldg. 40, Wallingford CT 06492
  
  
 ---------------------------------------------------------------
 Warning -- This program may not be used in any manner that
 competes with the business of Gaussian, Inc. or will provide
 assistance to any competitor of Gaussian, Inc.  The licensee
 of this program is prohibited from giving any competitor of
 Gaussian, Inc. access to this program.  By using this program,
 the user acknowledges that Gaussian, Inc. is engaged in the
 business of creating and licensing software in the field of
 computational chemistry and represents and warrants to the
 licensee that it is not a competitor of Gaussian, Inc. and that
 it will not use this program in any manner prohibited above.
 ---------------------------------------------------------------
  

 Cite this work as:
 Gaussian 16, Revision A.03,
 M. J. Frisch, G. W. Trucks, H. B. Schlegel, G. E. Scuseria, 
 M. A. Robb, J. R. Cheeseman, G. Scalmani, V. Barone, 
 G. A. Petersson, H. Nakatsuji, X. Li, M. Caricato, A. V. Marenich, 
 J. Bloino, B. G. Janesko, R. Gomperts, B. Mennucci, H. P. Hratchian, 
 J. V. Ortiz, A. F. Izmaylov, J. L. Sonnenberg, D. Williams-Young, 
 F. Ding, F. Lipparini, F. Egidi, J. Goings, B. Peng, A. Petrone, 
 T. Henderson, D. Ranasinghe, V. G. Zakrzewski, J. Gao, N. Rega, 
 G. Zheng, W. Liang, M. Hada, M. Ehara, K. Toyota, R. Fukuda, 
 J. Hasegawa, M. Ishida, T. Nakajima, Y. Honda, O. Kitao, H. Nakai, 
 T. Vreven, K. Throssell, J. A. Montgomery, Jr., J. E. Peralta, 
 F. Ogliaro, M. J. Bearpark, J. J. Heyd, E. N. Brothers, K. N. Kudin, 
 V. N. Staroverov, T. A. Keith, R. Kobayashi, J. Normand, 
 K. Raghavachari, A. P. Rendell, J. C. Burant, S. S. Iyengar, 
 J. Tomasi, M. Cossi, J. M. Millam, M. Klene, C. Adamo, R. Cammi, 
 J. W. Ochterski, R. L. Martin, K. Morokuma, O. Farkas, 
 J. B. Foresman, and D. J. Fox, Gaussian, Inc., Wallingford CT, 2016.
 
 ******************************************
 Gaussian 16:  ES64L-G16RevA.03 25-Dec-2016
                 8-Feb-2019 
 ******************************************
 %nproc=24
 Will use up to   24 processors via shared memory.
 ------------------------------------------
 #p M062X/6-31G* em=gd3 force int=ultrafine
 ------------------------------------------
 1/10=7,30=1,38=1/1,3;
 2/12=2,17=6,18=5,40=1/2;
 3/5=1,6=6,7=1,11=2,25=1,30=1,71=1,74=-55,75=-5,124=31/1,2,3;
 4//1;
 5/5=2,38=5/2;
 6/7=2,8=2,9=2,10=2,28=1/1;
 7/29=1/1,2,3,16;
 1/10=7,30=1/3;
 99//99;
 Leave Link    1 at Fri Feb  8 00:46:50 2019, MaxMem=           0 cpu:               2.5 elap:               0.1
 (Enter /home/xinyan/g16/l101.exe)
 -----
 Title
 -----
 Symbolic Z-matrix:
 Charge =  0 Multiplicity = 1
 C                    -4.94758   0.2429   -0.25822 
 C                    -5.08628  -1.01171  -1.12592 
 C                    -3.73383  -1.4109   -1.72834 
 C                    -2.74103  -1.6431   -0.59409 
 C                    -2.54182  -0.35341   0.25184 
 C                    -3.9001    0.05359   0.84313 
 H                    -3.82546  -2.31046  -2.34784 
 H                    -5.46769  -1.84107  -0.51586 
 H                    -5.81138  -0.8459   -1.92946 
 H                    -4.6422    1.08461  -0.89569 
 H                    -5.91721   0.50593   0.17795 
 H                    -3.11533  -2.43554   0.05938 
 H                    -2.26899   0.42812  -0.47275 
 H                    -4.22779  -0.7135    1.55632 
 H                    -3.75658   0.98899   1.39757 
 H                    -3.39199  -0.58985  -2.37366 
 N                    -1.40817  -2.10127  -1.0499 
 C                    -0.74515  -1.43914  -2.02551 
 C                    -0.71495  -2.93627  -0.24041 
 C                     0.60151  -1.57021  -2.20868 
 H                    -1.33986  -0.77595  -2.64041 
 C                     0.63364  -3.11521  -0.35896 
 H                    -1.28746  -3.41343   0.5477 
 C                     1.36577  -2.3565   -1.30288 
 H                     1.07546  -1.01906  -3.01017 
 H                     1.12382  -3.75427   0.36205 
 N                     2.70549  -2.36688  -1.32371 
 C                     3.46398  -2.96112  -0.21614 
 H                     3.32172  -4.04547  -0.18664 
 H                     3.11253  -2.52807   0.73095 
 C                     3.48166  -1.32574  -2.01392 
 H                     3.71064  -1.64202  -3.03904 
 H                     2.91128  -0.39342  -2.03441 
 N                    -1.41795  -0.42372   1.16339 
 S                    -1.45558  -1.40174   2.40249 
 O                    -2.52953  -2.41864   2.34095 
 O                    -0.09616  -1.96514   2.62856 
 C                    -1.01864   2.71761   0.04859 
 C                    -0.33463   2.02335  -0.95472 
 C                    -0.85763   1.97274  -2.24521 
 C                    -2.07929   2.57695  -2.54238 
 C                    -2.77377   3.24858  -1.53817 
 C                    -2.24014   3.31972  -0.2535 
 H                     0.57923   1.48723  -0.70484 
 H                    -0.30915   1.45087  -3.02623 
 H                    -2.48796   2.52703  -3.54736 
 H                    -3.73124   3.71463  -1.75227 
 H                    -2.78458   3.83912   0.53236 
 O                     0.26831   1.65098   1.81002 
 H                    -0.28628   0.86484   1.53271 
 C                     2.38224   0.20194   1.39734 
 O                     2.04273  -0.18791   0.29296 
 O                     2.08543  -0.4255    2.52274 
 H                     1.34144  -1.0751    2.38458 
 C                     3.24166   1.42371   1.62339 
 H                     2.81723   1.95984   2.47693 
 H                     4.24282   1.08432   1.92619 
 C                    -0.45223   2.79438   1.45173 
 H                    -1.27532   3.00014   2.15639 
 H                     0.24148   3.64419   1.51973 
 C                    -1.75791  -0.39393   3.8512 
 H                    -0.99592   0.38897   3.86045 
 H                    -2.75581   0.03982   3.76237 
 H                    -1.6853   -1.0215    4.74053 
 C                     3.31669   2.31876   0.39348 
 H                     3.69139   1.74009  -0.45968 
 H                     2.2989    2.62661   0.12937 
 C                     4.19282   3.54638   0.62286 
 H                     4.24201   4.17308  -0.27233 
 H                     3.7991    4.15965   1.44017 
 H                     5.21607   3.25863   0.88827 
 C                     4.90576  -2.55931  -0.51472 
 H                     5.5184   -2.54089   0.38882 
 H                     5.35513  -3.26417  -1.22184 
 C                     4.74367  -1.18047  -1.15918 
 H                     4.55499  -0.43108  -0.38495 
 H                     5.61084  -0.86973  -1.74547 
 
 ITRead=  0  0  0  0  0  0  0  0  0  0  0  0  0  0  0  0  0  0  0  0
 ITRead=  0  0  0  0  0  0  0  0  0  0  0  0  0  0  0  0  0  0  0  0
 ITRead=  0  0  0  0  0  0  0  0  0  0  0  0  0  0  0  0  0  0  0  0
 ITRead=  0  0  0  0  0  0  0  0  0  0  0  0  0  0  0  0  0
 MicOpt= -1 -1 -1 -1 -1 -1 -1 -1 -1 -1 -1 -1 -1 -1 -1 -1 -1 -1 -1 -1
 MicOpt= -1 -1 -1 -1 -1 -1 -1 -1 -1 -1 -1 -1 -1 -1 -1 -1 -1 -1 -1 -1
 MicOpt= -1 -1 -1 -1 -1 -1 -1 -1 -1 -1 -1 -1 -1 -1 -1 -1 -1 -1 -1 -1
 MicOpt= -1 -1 -1 -1 -1 -1 -1 -1 -1 -1 -1 -1 -1 -1 -1 -1 -1
 NAtoms=     77 NQM=       77 NQMF=       0 NMMI=      0 NMMIF=      0
                NMic=       0 NMicF=      0.
                    Isotopes and Nuclear Properties:
 (Nuclear quadrupole moments (NQMom) in fm**2, nuclear magnetic moments (NMagM)
  in nuclear magnetons)

  Atom         1           2           3           4           5           6           7           8           9          10
 IAtWgt=          12          12          12          12          12          12           1           1           1           1
 AtmWgt=  12.0000000  12.0000000  12.0000000  12.0000000  12.0000000  12.0000000   1.0078250   1.0078250   1.0078250   1.0078250
 NucSpn=           0           0           0           0           0           0           1           1           1           1
 AtZEff=  -0.0000000  -0.0000000  -0.0000000  -0.0000000  -0.0000000  -0.0000000  -0.0000000  -0.0000000  -0.0000000  -0.0000000
 NQMom=    0.0000000   0.0000000   0.0000000   0.0000000   0.0000000   0.0000000   0.0000000   0.0000000   0.0000000   0.0000000
 NMagM=    0.0000000   0.0000000   0.0000000   0.0000000   0.0000000   0.0000000   2.7928460   2.7928460   2.7928460   2.7928460
 AtZNuc=   6.0000000   6.0000000   6.0000000   6.0000000   6.0000000   6.0000000   1.0000000   1.0000000   1.0000000   1.0000000

  Atom        11          12          13          14          15          16          17          18          19          20
 IAtWgt=           1           1           1           1           1           1          14          12          12          12
 AtmWgt=   1.0078250   1.0078250   1.0078250   1.0078250   1.0078250   1.0078250  14.0030740  12.0000000  12.0000000  12.0000000
 NucSpn=           1           1           1           1           1           1           2           0           0           0
 AtZEff=  -0.0000000  -0.0000000  -0.0000000  -0.0000000  -0.0000000  -0.0000000  -0.0000000  -0.0000000  -0.0000000  -0.0000000
 NQMom=    0.0000000   0.0000000   0.0000000   0.0000000   0.0000000   0.0000000   2.0440000   0.0000000   0.0000000   0.0000000
 NMagM=    2.7928460   2.7928460   2.7928460   2.7928460   2.7928460   2.7928460   0.4037610   0.0000000   0.0000000   0.0000000
 AtZNuc=   1.0000000   1.0000000   1.0000000   1.0000000   1.0000000   1.0000000   7.0000000   6.0000000   6.0000000   6.0000000

  Atom        21          22          23          24          25          26          27          28          29          30
 IAtWgt=           1          12           1          12           1           1          14          12           1           1
 AtmWgt=   1.0078250  12.0000000   1.0078250  12.0000000   1.0078250   1.0078250  14.0030740  12.0000000   1.0078250   1.0078250
 NucSpn=           1           0           1           0           1           1           2           0           1           1
 AtZEff=  -0.0000000  -0.0000000  -0.0000000  -0.0000000  -0.0000000  -0.0000000  -0.0000000  -0.0000000  -0.0000000  -0.0000000
 NQMom=    0.0000000   0.0000000   0.0000000   0.0000000   0.0000000   0.0000000   2.0440000   0.0000000   0.0000000   0.0000000
 NMagM=    2.7928460   0.0000000   2.7928460   0.0000000   2.7928460   2.7928460   0.4037610   0.0000000   2.7928460   2.7928460
 AtZNuc=   1.0000000   6.0000000   1.0000000   6.0000000   1.0000000   1.0000000   7.0000000   6.0000000   1.0000000   1.0000000

  Atom        31          32          33          34          35          36          37          38          39          40
 IAtWgt=          12           1           1          14          32          16          16          12          12          12
 AtmWgt=  12.0000000   1.0078250   1.0078250  14.0030740  31.9720718  15.9949146  15.9949146  12.0000000  12.0000000  12.0000000
 NucSpn=           0           1           1           2           0           0           0           0           0           0
 AtZEff=  -0.0000000  -0.0000000  -0.0000000  -0.0000000  -0.0000000  -0.0000000  -0.0000000  -0.0000000  -0.0000000  -0.0000000
 NQMom=    0.0000000   0.0000000   0.0000000   2.0440000   0.0000000   0.0000000   0.0000000   0.0000000   0.0000000   0.0000000
 NMagM=    0.0000000   2.7928460   2.7928460   0.4037610   0.0000000   0.0000000   0.0000000   0.0000000   0.0000000   0.0000000
 AtZNuc=   6.0000000   1.0000000   1.0000000   7.0000000  16.0000000   8.0000000   8.0000000   6.0000000   6.0000000   6.0000000

  Atom        41          42          43          44          45          46          47          48          49          50
 IAtWgt=          12          12          12           1           1           1           1           1          16           1
 AtmWgt=  12.0000000  12.0000000  12.0000000   1.0078250   1.0078250   1.0078250   1.0078250   1.0078250  15.9949146   1.0078250
 NucSpn=           0           0           0           1           1           1           1           1           0           1
 AtZEff=  -0.0000000  -0.0000000  -0.0000000  -0.0000000  -0.0000000  -0.0000000  -0.0000000  -0.0000000  -0.0000000  -0.0000000
 NQMom=    0.0000000   0.0000000   0.0000000   0.0000000   0.0000000   0.0000000   0.0000000   0.0000000   0.0000000   0.0000000
 NMagM=    0.0000000   0.0000000   0.0000000   2.7928460   2.7928460   2.7928460   2.7928460   2.7928460   0.0000000   2.7928460
 AtZNuc=   6.0000000   6.0000000   6.0000000   1.0000000   1.0000000   1.0000000   1.0000000   1.0000000   8.0000000   1.0000000

  Atom        51          52          53          54          55          56          57          58          59          60
 IAtWgt=          12          16          16           1          12           1           1          12           1           1
 AtmWgt=  12.0000000  15.9949146  15.9949146   1.0078250  12.0000000   1.0078250   1.0078250  12.0000000   1.0078250   1.0078250
 NucSpn=           0           0           0           1           0           1           1           0           1           1
 AtZEff=  -0.0000000  -0.0000000  -0.0000000  -0.0000000  -0.0000000  -0.0000000  -0.0000000  -0.0000000  -0.0000000  -0.0000000
 NQMom=    0.0000000   0.0000000   0.0000000   0.0000000   0.0000000   0.0000000   0.0000000   0.0000000   0.0000000   0.0000000
 NMagM=    0.0000000   0.0000000   0.0000000   2.7928460   0.0000000   2.7928460   2.7928460   0.0000000   2.7928460   2.7928460
 AtZNuc=   6.0000000   8.0000000   8.0000000   1.0000000   6.0000000   1.0000000   1.0000000   6.0000000   1.0000000   1.0000000

  Atom        61          62          63          64          65          66          67          68          69          70
 IAtWgt=          12           1           1           1          12           1           1          12           1           1
 AtmWgt=  12.0000000   1.0078250   1.0078250   1.0078250  12.0000000   1.0078250   1.0078250  12.0000000   1.0078250   1.0078250
 NucSpn=           0           1           1           1           0           1           1           0           1           1
 AtZEff=  -0.0000000  -0.0000000  -0.0000000  -0.0000000  -0.0000000  -0.0000000  -0.0000000  -0.0000000  -0.0000000  -0.0000000
 NQMom=    0.0000000   0.0000000   0.0000000   0.0000000   0.0000000   0.0000000   0.0000000   0.0000000   0.0000000   0.0000000
 NMagM=    0.0000000   2.7928460   2.7928460   2.7928460   0.0000000   2.7928460   2.7928460   0.0000000   2.7928460   2.7928460
 AtZNuc=   6.0000000   1.0000000   1.0000000   1.0000000   6.0000000   1.0000000   1.0000000   6.0000000   1.0000000   1.0000000

  Atom        71          72          73          74          75          76          77
 IAtWgt=           1          12           1           1          12           1           1
 AtmWgt=   1.0078250  12.0000000   1.0078250   1.0078250  12.0000000   1.0078250   1.0078250
 NucSpn=           1           0           1           1           0           1           1
 AtZEff=  -0.0000000  -0.0000000  -0.0000000  -0.0000000  -0.0000000  -0.0000000  -0.0000000
 NQMom=    0.0000000   0.0000000   0.0000000   0.0000000   0.0000000   0.0000000   0.0000000
 NMagM=    2.7928460   0.0000000   2.7928460   2.7928460   0.0000000   2.7928460   2.7928460
 AtZNuc=   1.0000000   6.0000000   1.0000000   1.0000000   6.0000000   1.0000000   1.0000000
 Leave Link  101 at Fri Feb  8 00:46:50 2019, MaxMem=   104857600 cpu:               5.8 elap:               0.3
 (Enter /home/xinyan/g16/l103.exe)

 GradGradGradGradGradGradGradGradGradGradGradGradGradGradGradGradGradGrad
 Berny optimization.
 Initialization pass.
 Trust Radius=3.00D-01 FncErr=1.00D-07 GrdErr=1.00D-07 EigMax=2.50D+02 EigMin=1.00D-04
 Number of steps in this run=      2 maximum allowed number of steps=      2.
 GradGradGradGradGradGradGradGradGradGradGradGradGradGradGradGradGradGrad

 Leave Link  103 at Fri Feb  8 00:46:50 2019, MaxMem=   104857600 cpu:               1.6 elap:               0.1
 (Enter /home/xinyan/g16/l202.exe)
 Stoichiometry    C27H41N3O5S
 Framework group  C1[X(C27H41N3O5S)]
 Deg. of freedom   225
 Full point group                 C1      NOp   1
 Largest Abelian subgroup         C1      NOp   1
 Largest concise Abelian subgroup C1      NOp   1
                         Standard orientation:                         
 ---------------------------------------------------------------------
 Center     Atomic      Atomic             Coordinates (Angstroms)
 Number     Number       Type             X           Y           Z
 ---------------------------------------------------------------------
      1          6           0       -4.867995    0.056788   -0.422659
      2          6           0       -4.900671   -1.225827   -1.259330
      3          6           0       -3.518350   -1.526950   -1.850849
      4          6           0       -2.512863   -1.648829   -0.710571
      5          6           0       -2.422710   -0.326814    0.103513
      6          6           0       -3.811454   -0.018662    0.683710
      7          1           0       -3.533994   -2.445882   -2.448096
      8          1           0       -5.214192   -2.068598   -0.629308
      9          1           0       -5.634793   -1.139969   -2.067187
     10          1           0       -4.631189    0.904935   -1.080437
     11          1           0       -5.857146    0.249700    0.006264
     12          1           0       -2.822452   -2.453169   -0.038056
     13          1           0       -2.213158    0.456564   -0.639899
     14          1           0       -4.076837   -0.792448    1.415334
     15          1           0       -3.746870    0.938658    1.215070
     16          1           0       -3.243487   -0.696578   -2.515942
     17          7           0       -1.145607   -2.006741   -1.154087
     18          6           0       -0.536691   -1.316342   -2.145247
     19          6           0       -0.388216   -2.761795   -0.323843
     20          6           0        0.816674   -1.340559   -2.324243
     21          1           0       -1.182293   -0.719595   -2.776669
     22          6           0        0.970837   -2.831965   -0.437059
     23          1           0       -0.921643   -3.265043    0.475384
     24          6           0        1.640597   -2.038880   -1.398869
     25          1           0        1.245825   -0.772035   -3.138731
     26          1           0        1.509994   -3.410681    0.299777
     27          7           0        2.976681   -1.939452   -1.418546
     28          6           0        3.778510   -2.441973   -0.296191
     29          1           0        3.725867   -3.533306   -0.240123
     30          1           0        3.390080   -2.016287    0.639727
     31          6           0        3.666413   -0.855149   -2.133640
     32          1           0        3.923392   -1.176486   -3.150518
     33          1           0        3.021319    0.026275   -2.177435
     34          7           0       -1.299319   -0.282058    1.017264
     35         16           0       -1.259685   -1.229256    2.280020
     36          8           0       -2.246161   -2.332307    2.242797
     37          8           0        0.140866   -1.673146    2.520783
     38          6           0       -1.156816    2.853271   -0.174200
     39          6           0       -0.415313    2.193340   -1.159675
     40          6           0       -0.928906    2.068302   -2.448877
     41          6           0       -2.195332    2.562452   -2.761631
     42          6           0       -2.945411    3.198997   -1.774707
     43          6           0       -2.422897    3.345221   -0.491821
     44          1           0        0.538883    1.740536   -0.896076
     45          1           0       -0.337253    1.574405   -3.216460
     46          1           0       -2.595807    2.454496   -3.765351
     47          1           0       -3.937399    3.579275   -2.000842
     48          1           0       -3.010334    3.837108    0.280664
     49          8           0        0.208788    1.939598    1.613788
     50          1           0       -0.278496    1.103928    1.355530
     51          6           0        2.435870    0.659824    1.238280
     52          8           0        2.132554    0.216456    0.143598
     53          8           0        2.188665    0.037796    2.378575
     54          1           0        1.501016   -0.674025    2.255940
     55          6           0        3.191247    1.953353    1.434781
     56          1           0        2.721855    2.473442    2.274594
     57          1           0        4.216118    1.705033    1.746503
     58          6           0       -0.602415    3.010700    1.227003
     59          1           0       -1.441534    3.165183    1.925842
     60          1           0        0.018841    3.916137    1.274541
     61          6           0       -1.647798   -0.214622    3.703301
     62          1           0       -0.952831    0.628336    3.693798
     63          1           0       -2.677759    0.133212    3.603166
     64          1           0       -1.526192   -0.812145    4.607846
     65          6           0        3.195688    2.821191    0.183278
     66          1           0        3.619018    2.254634   -0.655141
     67          1           0        2.156734    3.037665   -0.089001
     68          6           0        3.967228    4.122005    0.382976
     69          1           0        3.967096    4.728544   -0.527325
     70          1           0        3.522192    4.720591    1.184692
     71          1           0        5.009966    3.926038    0.656064
     72          6           0        5.183141   -1.930270   -0.603605
     73          1           0        5.789759   -1.839390    0.299616
     74          1           0        5.690878   -2.612832   -1.292875
     75          6           0        4.909891   -0.585628   -1.281893
     76          1           0        4.658116    0.164399   -0.526455
     77          1           0        5.750128   -0.218995   -1.875072
 ---------------------------------------------------------------------
 Rotational constants (GHZ):           0.1435652           0.0962406           0.0861668
 Leave Link  202 at Fri Feb  8 00:46:50 2019, MaxMem=   104857600 cpu:               2.4 elap:               0.1
 (Enter /home/xinyan/g16/l301.exe)
 Standard basis: 6-31G(d) (6D, 7F)
 Ernie: Thresh=  0.10000D-02 Tol=  0.10000D-05 Strict=F.
 There are   626 symmetry adapted cartesian basis functions of A   symmetry.
 There are   626 symmetry adapted basis functions of A   symmetry.
   626 basis functions,  1196 primitive gaussians,   626 cartesian basis functions
   140 alpha electrons      140 beta electrons
       nuclear repulsion energy      4883.8733333445 Hartrees.
 IExCor= 4336 DFT=T Ex+Corr=M062X ExCW=0 ScaHFX=  0.540000
 ScaDFX=  1.000000  1.000000  1.000000  1.000000 ScalE2=  1.000000  1.000000
 IRadAn=      5 IRanWt=     -1 IRanGd=            0 ICorTp=0 IEmpDi=131
 NAtoms=   77 NActive=   77 NUniq=   77 SFac= 1.00D+00 NAtFMM=   60 NAOKFM=T Big=T
 Integral buffers will be    131072 words long.
 Raffenetti 2 integral format.
 Two-electron integral symmetry is turned on.
 R6Disp:  Grimme-D3 Dispersion energy=       -0.0105982060 Hartrees.
 Nuclear repulsion after empirical dispersion term =     4883.8627351385 Hartrees.
 Leave Link  301 at Fri Feb  8 00:46:50 2019, MaxMem=   104857600 cpu:               3.0 elap:               0.1
 (Enter /home/xinyan/g16/l302.exe)
 NPDir=0 NMtPBC=     1 NCelOv=     1 NCel=       1 NClECP=     1 NCelD=      1
         NCelK=      1 NCelE2=     1 NClLst=     1 CellRange=     0.0.
 One-electron integrals computed using PRISM.
 One-electron integral symmetry used in STVInt
 PrsmSu:  requested number of processors reduced to:  23 ShMem   1 Linda.
 NBasis=   626 RedAO= T EigKep=  4.36D-04  NBF=   626
 NBsUse=   626 1.00D-06 EigRej= -1.00D+00 NBFU=   626
 Precomputing XC quadrature grid using
 IXCGrd= 4 IRadAn=           5 IRanWt=          -1 IRanGd=           0 AccXCQ= 0.00D+00.
 Generated NRdTot=       0 NPtTot=           0 NUsed=           0 NTot=          32
 NSgBfM=   615   613   614   614   615 MxSgAt=    77 MxSgA2=    77.
 Leave Link  302 at Fri Feb  8 00:46:56 2019, MaxMem=   104857600 cpu:             122.1 elap:               5.3
 (Enter /home/xinyan/g16/l303.exe)
 DipDrv:  MaxL=1.
 Leave Link  303 at Fri Feb  8 00:46:56 2019, MaxMem=   104857600 cpu:               6.2 elap:               0.3
 (Enter /home/xinyan/g16/l401.exe)
 ExpMin= 1.17D-01 ExpMax= 2.19D+04 ExpMxC= 3.30D+03 IAcc=3 IRadAn=         5 AccDes= 0.00D+00
 Harris functional with IExCor= 1009 and IRadAn=       5 diagonalized for initial guess.
 HarFok:  IExCor= 1009 AccDes= 0.00D+00 IRadAn=         5 IDoV= 1 UseB2=F ITyADJ=14
 ICtDFT=  3500011 ScaDFX=  1.000000  1.000000  1.000000  1.000000
 FoFCou: FMM=F IPFlag=           0 FMFlag=      100000 FMFlg1=        2001
         NFxFlg=           0 DoJE=T BraDBF=F KetDBF=T FulRan=T
         wScrn=  0.000000 ICntrl=       500 IOpCl=  0 I1Cent=   200000004 NGrid=           0
         NMat0=    1 NMatS0=      1 NMatT0=    0 NMatD0=    1 NMtDS0=    0 NMtDT0=    0
 Petite list used in FoFCou.
 Harris En= -1990.55295974647    
 JPrj=0 DoOrth=F DoCkMO=F.
 Leave Link  401 at Fri Feb  8 00:47:00 2019, MaxMem=   104857600 cpu:              97.0 elap:               4.1
 (Enter /home/xinyan/g16/l502.exe)
 Integral symmetry usage will be decided dynamically.
 Closed shell SCF:
 Using DIIS extrapolation, IDIIS=  1040.
 NGot=   104857600 LenX=   104051656 LenY=   103659154
 Requested convergence on RMS density matrix=1.00D-08 within 128 cycles.
 Requested convergence on MAX density matrix=1.00D-06.
 Requested convergence on             energy=1.00D-06.
 No special actions if energy rises.
 Fock matrices will be formed incrementally for  20 cycles.
 Integral accuracy reduced to 1.0D-05 until final iterations.

 Cycle   1  Pass 0  IDiag  1:
 FoFJK:  IHMeth= 1 ICntrl=       0 DoSepK=F KAlg= 0 I1Cent=           0 FoldK=F
 IRaf= 990000000 NMat=       1 IRICut=       1 DoRegI=T DoRafI=F ISym2E= 0 IDoP0=0 IntGTp=1.
 FoFCou: FMM=T IPFlag=           0 FMFlag=      100000 FMFlg1=        2001
         NFxFlg=           0 DoJE=F BraDBF=F KetDBF=F FulRan=T
         wScrn=  0.000000 ICntrl=         0 IOpCl=  0 I1Cent=           0 NGrid=           0
         NMat0=    1 NMatS0=      1 NMatT0=    0 NMatD0=    1 NMtDS0=    0 NMtDT0=    0
 Symmetry not used in FoFCou.
 FMM levels:  10  Number of levels for PrismC:   9
 E= -1990.34979952505    
 DIIS: error= 2.77D-02 at cycle   1 NSaved=   1.
 NSaved= 1 IEnMin= 1 EnMin= -1990.34979952505     IErMin= 1 ErrMin= 2.77D-02
 ErrMax= 2.77D-02  0.00D+00 EMaxC= 1.00D-01 BMatC= 1.22D+00 BMatP= 1.22D+00
 IDIUse=3 WtCom= 7.23D-01 WtEn= 2.77D-01
 Coeff-Com:  0.100D+01
 Coeff-En:   0.100D+01
 Coeff:      0.100D+01
 Gap=     0.376 Goal=   None    Shift=    0.000
 GapD=    0.376 DampG=1.000 DampE=0.500 DampFc=0.5000 IDamp=-1.
 Damping current iteration by 5.00D-01
 RMSDP=3.20D-03 MaxDP=3.20D-01              OVMax= 1.42D-01

 Cycle   2  Pass 0  IDiag  1:
 RMSU=  1.59D-03    CP:  9.87D-01
 E= -1990.86338024384     Delta-E=       -0.513580718789 Rises=F Damp=T
 DIIS: error= 1.10D-02 at cycle   2 NSaved=   2.
 NSaved= 2 IEnMin= 2 EnMin= -1990.86338024384     IErMin= 2 ErrMin= 1.10D-02
 ErrMax= 1.10D-02  0.00D+00 EMaxC= 1.00D-01 BMatC= 8.81D-02 BMatP= 1.22D+00
 IDIUse=3 WtCom= 8.90D-01 WtEn= 1.10D-01
 Coeff-Com: -0.440D-01 0.104D+01
 Coeff-En:   0.000D+00 0.100D+01
 Coeff:     -0.392D-01 0.104D+01
 Gap=     0.253 Goal=   None    Shift=    0.000
 RMSDP=7.74D-04 MaxDP=7.50D-02 DE=-5.14D-01 OVMax= 9.35D-02

 Cycle   3  Pass 0  IDiag  1:
 RMSU=  7.69D-04    CP:  9.81D-01  1.01D+00
 E= -1991.35923706358     Delta-E=       -0.495856819746 Rises=F Damp=F
 DIIS: error= 6.04D-03 at cycle   3 NSaved=   3.
 NSaved= 3 IEnMin= 3 EnMin= -1991.35923706358     IErMin= 3 ErrMin= 6.04D-03
 ErrMax= 6.04D-03  0.00D+00 EMaxC= 1.00D-01 BMatC= 3.68D-02 BMatP= 8.81D-02
 IDIUse=3 WtCom= 9.40D-01 WtEn= 6.04D-02
 Coeff-Com: -0.706D-01 0.406D+00 0.665D+00
 Coeff-En:   0.000D+00 0.000D+00 0.100D+01
 Coeff:     -0.664D-01 0.381D+00 0.685D+00
 Gap=     0.252 Goal=   None    Shift=    0.000
 RMSDP=4.19D-04 MaxDP=3.99D-02 DE=-4.96D-01 OVMax= 4.22D-02

 Cycle   4  Pass 0  IDiag  1:
 RMSU=  2.86D-04    CP:  9.83D-01  1.09D+00  6.37D-01
 E= -1991.38061108759     Delta-E=       -0.021374024005 Rises=F Damp=F
 DIIS: error= 3.72D-03 at cycle   4 NSaved=   4.
 NSaved= 4 IEnMin= 4 EnMin= -1991.38061108759     IErMin= 4 ErrMin= 3.72D-03
 ErrMax= 3.72D-03  0.00D+00 EMaxC= 1.00D-01 BMatC= 1.04D-02 BMatP= 3.68D-02
 IDIUse=3 WtCom= 9.63D-01 WtEn= 3.72D-02
 Coeff-Com: -0.263D-01 0.866D-01 0.374D+00 0.565D+00
 Coeff-En:   0.000D+00 0.000D+00 0.225D+00 0.775D+00
 Coeff:     -0.253D-01 0.834D-01 0.369D+00 0.573D+00
 Gap=     0.242 Goal=   None    Shift=    0.000
 RMSDP=1.77D-04 MaxDP=1.23D-02 DE=-2.14D-02 OVMax= 1.96D-02

 Cycle   5  Pass 0  IDiag  1:
 RMSU=  8.29D-05    CP:  9.82D-01  1.08D+00  7.49D-01  5.47D-01
 E= -1991.38891664232     Delta-E=       -0.008305554735 Rises=F Damp=F
 DIIS: error= 7.81D-04 at cycle   5 NSaved=   5.
 NSaved= 5 IEnMin= 5 EnMin= -1991.38891664232     IErMin= 5 ErrMin= 7.81D-04
 ErrMax= 7.81D-04  0.00D+00 EMaxC= 1.00D-01 BMatC= 5.77D-04 BMatP= 1.04D-02
 IDIUse=3 WtCom= 9.92D-01 WtEn= 7.81D-03
 Coeff-Com: -0.825D-02 0.197D-01 0.144D+00 0.288D+00 0.556D+00
 Coeff-En:   0.000D+00 0.000D+00 0.000D+00 0.000D+00 0.100D+01
 Coeff:     -0.818D-02 0.195D-01 0.143D+00 0.286D+00 0.560D+00
 Gap=     0.244 Goal=   None    Shift=    0.000
 RMSDP=4.79D-05 MaxDP=3.74D-03 DE=-8.31D-03 OVMax= 5.66D-03

 Cycle   6  Pass 0  IDiag  1:
 RMSU=  2.39D-05    CP:  9.82D-01  1.08D+00  7.53D-01  6.19D-01  5.68D-01
 E= -1991.38941172446     Delta-E=       -0.000495082137 Rises=F Damp=F
 DIIS: error= 2.03D-04 at cycle   6 NSaved=   6.
 NSaved= 6 IEnMin= 6 EnMin= -1991.38941172446     IErMin= 6 ErrMin= 2.03D-04
 ErrMax= 2.03D-04  0.00D+00 EMaxC= 1.00D-01 BMatC= 3.78D-05 BMatP= 5.77D-04
 IDIUse=3 WtCom= 9.98D-01 WtEn= 2.03D-03
 Coeff-Com: -0.123D-02 0.114D-02 0.305D-01 0.771D-01 0.260D+00 0.632D+00
 Coeff-En:   0.000D+00 0.000D+00 0.000D+00 0.000D+00 0.000D+00 0.100D+01
 Coeff:     -0.123D-02 0.114D-02 0.304D-01 0.769D-01 0.260D+00 0.633D+00
 Gap=     0.244 Goal=   None    Shift=    0.000
 RMSDP=1.22D-05 MaxDP=6.60D-04 DE=-4.95D-04 OVMax= 1.84D-03

 Cycle   7  Pass 0  IDiag  1:
 RMSU=  7.86D-06    CP:  9.82D-01  1.08D+00  7.55D-01  6.19D-01  6.41D-01
                    CP:  7.17D-01
 E= -1991.38944881622     Delta-E=       -0.000037091761 Rises=F Damp=F
 DIIS: error= 3.96D-05 at cycle   7 NSaved=   7.
 NSaved= 7 IEnMin= 7 EnMin= -1991.38944881622     IErMin= 7 ErrMin= 3.96D-05
 ErrMax= 3.96D-05  0.00D+00 EMaxC= 1.00D-01 BMatC= 2.91D-06 BMatP= 3.78D-05
 IDIUse=1 WtCom= 1.00D+00 WtEn= 0.00D+00
 Coeff-Com:  0.289D-03-0.144D-02-0.770D-03 0.592D-02 0.622D-01 0.268D+00
 Coeff-Com:  0.666D+00
 Coeff:      0.289D-03-0.144D-02-0.770D-03 0.592D-02 0.622D-01 0.268D+00
 Coeff:      0.666D+00
 Gap=     0.244 Goal=   None    Shift=    0.000
 RMSDP=4.15D-06 MaxDP=2.35D-04 DE=-3.71D-05 OVMax= 3.38D-04

 Initial convergence to 1.0D-05 achieved.  Increase integral accuracy.
 Cycle   8  Pass 1  IDiag  1:
 E= -1991.38966652908     Delta-E=       -0.000217712857 Rises=F Damp=F
 DIIS: error= 1.53D-04 at cycle   1 NSaved=   1.
 NSaved= 1 IEnMin= 1 EnMin= -1991.38966652908     IErMin= 1 ErrMin= 1.53D-04
 ErrMax= 1.53D-04  0.00D+00 EMaxC= 1.00D-01 BMatC= 1.20D-05 BMatP= 1.20D-05
 IDIUse=3 WtCom= 9.98D-01 WtEn= 1.53D-03
 Coeff-Com:  0.100D+01
 Coeff-En:   0.100D+01
 Coeff:      0.100D+01
 Gap=     0.244 Goal=   None    Shift=    0.000
 RMSDP=4.15D-06 MaxDP=2.35D-04 DE=-2.18D-04 OVMax= 5.34D-04

 Cycle   9  Pass 1  IDiag  1:
 RMSU=  6.51D-05    CP:  1.00D+00
 E= -1991.38967751227     Delta-E=       -0.000010983194 Rises=F Damp=F
 DIIS: error= 3.02D-05 at cycle   2 NSaved=   2.
 NSaved= 2 IEnMin= 2 EnMin= -1991.38967751227     IErMin= 2 ErrMin= 3.02D-05
 ErrMax= 3.02D-05  0.00D+00 EMaxC= 1.00D-01 BMatC= 8.94D-07 BMatP= 1.20D-05
 IDIUse=1 WtCom= 1.00D+00 WtEn= 0.00D+00
 Coeff-Com:  0.832D-01 0.917D+00
 Coeff:      0.832D-01 0.917D+00
 Gap=     0.244 Goal=   None    Shift=    0.000
 RMSDP=4.02D-06 MaxDP=2.60D-04 DE=-1.10D-05 OVMax= 4.52D-04

 Cycle  10  Pass 1  IDiag  1:
 RMSU=  3.56D-06    CP:  1.00D+00  1.03D+00
 E= -1991.38967699888     Delta-E=        0.000000513392 Rises=F Damp=F
 DIIS: error= 4.51D-05 at cycle   3 NSaved=   3.
 NSaved= 3 IEnMin= 2 EnMin= -1991.38967751227     IErMin= 2 ErrMin= 3.02D-05
 ErrMax= 4.51D-05  0.00D+00 EMaxC= 1.00D-01 BMatC= 1.48D-06 BMatP= 8.94D-07
 IDIUse=1 WtCom= 1.00D+00 WtEn= 0.00D+00
 Coeff-Com: -0.160D-01 0.569D+00 0.447D+00
 Coeff:     -0.160D-01 0.569D+00 0.447D+00
 Gap=     0.244 Goal=   None    Shift=    0.000
 RMSDP=1.98D-06 MaxDP=1.59D-04 DE= 5.13D-07 OVMax= 3.16D-04

 Cycle  11  Pass 1  IDiag  1:
 RMSU=  6.07D-07    CP:  1.00D+00  1.03D+00  4.78D-01
 E= -1991.38967829499     Delta-E=       -0.000001296113 Rises=F Damp=F
 DIIS: error= 4.00D-06 at cycle   4 NSaved=   4.
 NSaved= 4 IEnMin= 4 EnMin= -1991.38967829499     IErMin= 4 ErrMin= 4.00D-06
 ErrMax= 4.00D-06  0.00D+00 EMaxC= 1.00D-01 BMatC= 9.91D-09 BMatP= 8.94D-07
 IDIUse=1 WtCom= 1.00D+00 WtEn= 0.00D+00
 Coeff-Com: -0.854D-02 0.250D+00 0.211D+00 0.548D+00
 Coeff:     -0.854D-02 0.250D+00 0.211D+00 0.548D+00
 Gap=     0.244 Goal=   None    Shift=    0.000
 RMSDP=2.04D-07 MaxDP=1.09D-05 DE=-1.30D-06 OVMax= 1.91D-05

 Cycle  12  Pass 1  IDiag  1:
 RMSU=  1.83D-07    CP:  1.00D+00  1.03D+00  4.95D-01  8.92D-01
 E= -1991.38967830393     Delta-E=       -0.000000008943 Rises=F Damp=F
 DIIS: error= 1.30D-06 at cycle   5 NSaved=   5.
 NSaved= 5 IEnMin= 5 EnMin= -1991.38967830393     IErMin= 5 ErrMin= 1.30D-06
 ErrMax= 1.30D-06  0.00D+00 EMaxC= 1.00D-01 BMatC= 8.82D-10 BMatP= 9.91D-09
 IDIUse=1 WtCom= 1.00D+00 WtEn= 0.00D+00
 Coeff-Com: -0.563D-03-0.702D-03 0.102D-01 0.201D+00 0.790D+00
 Coeff:     -0.563D-03-0.702D-03 0.102D-01 0.201D+00 0.790D+00
 Gap=     0.244 Goal=   None    Shift=    0.000
 RMSDP=8.75D-08 MaxDP=4.08D-06 DE=-8.94D-09 OVMax= 1.32D-05

 Cycle  13  Pass 1  IDiag  1:
 RMSU=  6.58D-08    CP:  1.00D+00  1.03D+00  4.99D-01  9.75D-01  8.89D-01
 E= -1991.38967830470     Delta-E=       -0.000000000765 Rises=F Damp=F
 DIIS: error= 5.68D-07 at cycle   6 NSaved=   6.
 NSaved= 6 IEnMin= 6 EnMin= -1991.38967830470     IErMin= 6 ErrMin= 5.68D-07
 ErrMax= 5.68D-07  0.00D+00 EMaxC= 1.00D-01 BMatC= 2.78D-10 BMatP= 8.82D-10
 IDIUse=1 WtCom= 1.00D+00 WtEn= 0.00D+00
 Coeff-Com:  0.985D-03-0.380D-01-0.245D-01 0.234D-01 0.437D+00 0.601D+00
 Coeff:      0.985D-03-0.380D-01-0.245D-01 0.234D-01 0.437D+00 0.601D+00
 Gap=     0.244 Goal=   None    Shift=    0.000
 RMSDP=3.40D-08 MaxDP=2.96D-06 DE=-7.65D-10 OVMax= 5.13D-06

 Cycle  14  Pass 1  IDiag  1:
 RMSU=  2.44D-08    CP:  1.00D+00  1.03D+00  5.01D-01  9.89D-01  9.73D-01
                    CP:  8.10D-01
 E= -1991.38967830500     Delta-E=       -0.000000000298 Rises=F Damp=F
 DIIS: error= 2.11D-07 at cycle   7 NSaved=   7.
 NSaved= 7 IEnMin= 7 EnMin= -1991.38967830500     IErMin= 7 ErrMin= 2.11D-07
 ErrMax= 2.11D-07  0.00D+00 EMaxC= 1.00D-01 BMatC= 1.74D-11 BMatP= 2.78D-10
 IDIUse=1 WtCom= 1.00D+00 WtEn= 0.00D+00
 Coeff-Com:  0.448D-03-0.153D-01-0.101D-01-0.123D-01 0.999D-01 0.236D+00
 Coeff-Com:  0.701D+00
 Coeff:      0.448D-03-0.153D-01-0.101D-01-0.123D-01 0.999D-01 0.236D+00
 Coeff:      0.701D+00
 Gap=     0.244 Goal=   None    Shift=    0.000
 RMSDP=1.07D-08 MaxDP=7.81D-07 DE=-2.98D-10 OVMax= 1.35D-06

 Cycle  15  Pass 1  IDiag  1:
 RMSU=  8.19D-09    CP:  1.00D+00  1.03D+00  5.02D-01  9.92D-01  9.87D-01
                    CP:  8.87D-01  1.07D+00
 E= -1991.38967830495     Delta-E=        0.000000000049 Rises=F Damp=F
 DIIS: error= 5.67D-08 at cycle   8 NSaved=   8.
 NSaved= 8 IEnMin= 7 EnMin= -1991.38967830500     IErMin= 8 ErrMin= 5.67D-08
 ErrMax= 5.67D-08  0.00D+00 EMaxC= 1.00D-01 BMatC= 2.73D-12 BMatP= 1.74D-11
 IDIUse=1 WtCom= 1.00D+00 WtEn= 0.00D+00
 Coeff-Com: -0.327D-04 0.203D-02 0.161D-02-0.107D-01-0.512D-01-0.276D-01
 Coeff-Com:  0.283D+00 0.803D+00
 Coeff:     -0.327D-04 0.203D-02 0.161D-02-0.107D-01-0.512D-01-0.276D-01
 Coeff:      0.283D+00 0.803D+00
 Gap=     0.244 Goal=   None    Shift=    0.000
 RMSDP=4.70D-09 MaxDP=3.96D-07 DE= 4.91D-11 OVMax= 7.83D-07

 SCF Done:  E(RM062X) =  -1991.38967830     A.U. after   15 cycles
            NFock= 15  Conv=0.47D-08     -V/T= 2.0076
 KE= 1.976465132875D+03 PE=-1.442027173254D+04 EE= 5.568554186227D+03
 Leave Link  502 at Fri Feb  8 00:49:29 2019, MaxMem=   104857600 cpu:            3566.3 elap:             148.8
 (Enter /home/xinyan/g16/l601.exe)
 Copying SCF densities to generalized density rwf, IOpCl= 0 IROHF=0.

 **********************************************************************

            Population analysis using the SCF density.

 **********************************************************************

 Orbital symmetries:
       Occupied  (A) (A) (A) (A) (A) (A) (A) (A) (A) (A) (A) (A)
                 (A) (A) (A) (A) (A) (A) (A) (A) (A) (A) (A) (A)
                 (A) (A) (A) (A) (A) (A) (A) (A) (A) (A) (A) (A)
                 (A) (A) (A) (A) (A) (A) (A) (A) (A) (A) (A) (A)
                 (A) (A) (A) (A) (A) (A) (A) (A) (A) (A) (A) (A)
                 (A) (A) (A) (A) (A) (A) (A) (A) (A) (A) (A) (A)
                 (A) (A) (A) (A) (A) (A) (A) (A) (A) (A) (A) (A)
                 (A) (A) (A) (A) (A) (A) (A) (A) (A) (A) (A) (A)
                 (A) (A) (A) (A) (A) (A) (A) (A) (A) (A) (A) (A)
                 (A) (A) (A) (A) (A) (A) (A) (A) (A) (A) (A) (A)
                 (A) (A) (A) (A) (A) (A) (A) (A) (A) (A) (A) (A)
                 (A) (A) (A) (A) (A) (A) (A) (A)
       Virtual   (A) (A) (A) (A) (A) (A) (A) (A) (A) (A) (A) (A)
                 (A) (A) (A) (A) (A) (A) (A) (A) (A) (A) (A) (A)
                 (A) (A) (A) (A) (A) (A) (A) (A) (A) (A) (A) (A)
                 (A) (A) (A) (A) (A) (A) (A) (A) (A) (A) (A) (A)
                 (A) (A) (A) (A) (A) (A) (A) (A) (A) (A) (A) (A)
                 (A) (A) (A) (A) (A) (A) (A) (A) (A) (A) (A) (A)
                 (A) (A) (A) (A) (A) (A) (A) (A) (A) (A) (A) (A)
                 (A) (A) (A) (A) (A) (A) (A) (A) (A) (A) (A) (A)
                 (A) (A) (A) (A) (A) (A) (A) (A) (A) (A) (A) (A)
                 (A) (A) (A) (A) (A) (A) (A) (A) (A) (A) (A) (A)
                 (A) (A) (A) (A) (A) (A) (A) (A) (A) (A) (A) (A)
                 (A) (A) (A) (A) (A) (A) (A) (A) (A) (A) (A) (A)
                 (A) (A) (A) (A) (A) (A) (A) (A) (A) (A) (A) (A)
                 (A) (A) (A) (A) (A) (A) (A) (A) (A) (A) (A) (A)
                 (A) (A) (A) (A) (A) (A) (A) (A) (A) (A) (A) (A)
                 (A) (A) (A) (A) (A) (A) (A) (A) (A) (A) (A) (A)
                 (A) (A) (A) (A) (A) (A) (A) (A) (A) (A) (A) (A)
                 (A) (A) (A) (A) (A) (A) (A) (A) (A) (A) (A) (A)
                 (A) (A) (A) (A) (A) (A) (A) (A) (A) (A) (A) (A)
                 (A) (A) (A) (A) (A) (A) (A) (A) (A) (A) (A) (A)
                 (A) (A) (A) (A) (A) (A) (A) (A) (A) (A) (A) (A)
                 (A) (A) (A) (A) (A) (A) (A) (A) (A) (A) (A) (A)
                 (A) (A) (A) (A) (A) (A) (A) (A) (A) (A) (A) (A)
                 (A) (A) (A) (A) (A) (A) (A) (A) (A) (A) (A) (A)
                 (A) (A) (A) (A) (A) (A) (A) (A) (A) (A) (A) (A)
                 (A) (A) (A) (A) (A) (A) (A) (A) (A) (A) (A) (A)
                 (A) (A) (A) (A) (A) (A) (A) (A) (A) (A) (A) (A)
                 (A) (A) (A) (A) (A) (A) (A) (A) (A) (A) (A) (A)
                 (A) (A) (A) (A) (A) (A) (A) (A) (A) (A) (A) (A)
                 (A) (A) (A) (A) (A) (A) (A) (A) (A) (A) (A) (A)
                 (A) (A) (A) (A) (A) (A) (A) (A) (A) (A) (A) (A)
                 (A) (A) (A) (A) (A) (A) (A) (A) (A) (A) (A) (A)
                 (A) (A) (A) (A) (A) (A) (A) (A) (A) (A) (A) (A)
                 (A) (A) (A) (A) (A) (A) (A) (A) (A) (A) (A) (A)
                 (A) (A) (A) (A) (A) (A) (A) (A) (A) (A) (A) (A)
                 (A) (A) (A) (A) (A) (A) (A) (A) (A) (A) (A) (A)
                 (A) (A) (A) (A) (A) (A) (A) (A) (A) (A) (A) (A)
                 (A) (A) (A) (A) (A) (A) (A) (A) (A) (A) (A) (A)
                 (A) (A) (A) (A) (A) (A) (A) (A) (A) (A) (A) (A)
                 (A) (A) (A) (A) (A) (A) (A) (A) (A) (A) (A) (A)
                 (A) (A) (A) (A) (A) (A)
 The electronic state is 1-A.
 Alpha  occ. eigenvalues --  -90.10373 -19.63379 -19.60095 -19.59286 -19.58592
 Alpha  occ. eigenvalues --  -19.58359 -14.84810 -14.80517 -14.69408 -10.65456
 Alpha  occ. eigenvalues --  -10.63237 -10.62395 -10.61514 -10.59148 -10.59096
 Alpha  occ. eigenvalues --  -10.59033 -10.57820 -10.57420 -10.56836 -10.56649
 Alpha  occ. eigenvalues --  -10.56060 -10.55763 -10.55503 -10.54968 -10.54917
 Alpha  occ. eigenvalues --  -10.54861 -10.54582 -10.54542 -10.54493 -10.53757
 Alpha  occ. eigenvalues --  -10.53746 -10.53558 -10.53144 -10.53010 -10.52628
 Alpha  occ. eigenvalues --  -10.52556  -8.41338  -6.33576  -6.33483  -6.33403
 Alpha  occ. eigenvalues --   -1.19126  -1.17893  -1.12942  -1.10323  -1.09852
 Alpha  occ. eigenvalues --   -1.09156  -1.06161  -0.97547  -0.95253  -0.94813
 Alpha  occ. eigenvalues --   -0.92188  -0.89856  -0.88590  -0.88034  -0.85015
 Alpha  occ. eigenvalues --   -0.84957  -0.83648  -0.83504  -0.83301  -0.80202
 Alpha  occ. eigenvalues --   -0.79119  -0.76359  -0.75663  -0.74680  -0.70943
 Alpha  occ. eigenvalues --   -0.70192  -0.69068  -0.68728  -0.68364  -0.67998
 Alpha  occ. eigenvalues --   -0.65777  -0.64724  -0.63949  -0.63427  -0.61635
 Alpha  occ. eigenvalues --   -0.60273  -0.59398  -0.58970  -0.58361  -0.56171
 Alpha  occ. eigenvalues --   -0.55456  -0.55159  -0.55061  -0.54061  -0.53674
 Alpha  occ. eigenvalues --   -0.53438  -0.53078  -0.52375  -0.51968  -0.51724
 Alpha  occ. eigenvalues --   -0.51151  -0.51000  -0.50610  -0.50193  -0.49829
 Alpha  occ. eigenvalues --   -0.49610  -0.49468  -0.48839  -0.48357  -0.48003
 Alpha  occ. eigenvalues --   -0.47775  -0.47171  -0.46977  -0.46929  -0.45941
 Alpha  occ. eigenvalues --   -0.45845  -0.45246  -0.43957  -0.43651  -0.43422
 Alpha  occ. eigenvalues --   -0.42759  -0.42453  -0.42255  -0.41916  -0.41898
 Alpha  occ. eigenvalues --   -0.41157  -0.40841  -0.40578  -0.39915  -0.39522
 Alpha  occ. eigenvalues --   -0.39368  -0.39194  -0.38745  -0.38377  -0.37833
 Alpha  occ. eigenvalues --   -0.37340  -0.36243  -0.35892  -0.35362  -0.35113
 Alpha  occ. eigenvalues --   -0.34402  -0.33128  -0.32094  -0.31713  -0.31502
 Alpha  occ. eigenvalues --   -0.29843  -0.28888  -0.28320  -0.27499  -0.25423
 Alpha virt. eigenvalues --   -0.01022   0.00647   0.03316   0.03802   0.09089
 Alpha virt. eigenvalues --    0.10139   0.10927   0.11780   0.13002   0.13456
 Alpha virt. eigenvalues --    0.13844   0.14228   0.15150   0.15507   0.15748
 Alpha virt. eigenvalues --    0.16238   0.16499   0.17188   0.17475   0.17919
 Alpha virt. eigenvalues --    0.18271   0.18337   0.18580   0.18894   0.19084
 Alpha virt. eigenvalues --    0.19405   0.19611   0.20145   0.20309   0.20364
 Alpha virt. eigenvalues --    0.20868   0.21015   0.21154   0.21553   0.21846
 Alpha virt. eigenvalues --    0.22312   0.22498   0.22800   0.22818   0.23245
 Alpha virt. eigenvalues --    0.23597   0.24036   0.24309   0.24341   0.24592
 Alpha virt. eigenvalues --    0.24909   0.25134   0.25420   0.26003   0.26373
 Alpha virt. eigenvalues --    0.27032   0.27352   0.27683   0.28080   0.28166
 Alpha virt. eigenvalues --    0.28684   0.29247   0.29592   0.30346   0.30479
 Alpha virt. eigenvalues --    0.30821   0.31092   0.31480   0.31893   0.32524
 Alpha virt. eigenvalues --    0.32788   0.33423   0.34616   0.35285   0.35470
 Alpha virt. eigenvalues --    0.35787   0.36578   0.37172   0.38461   0.38676
 Alpha virt. eigenvalues --    0.38891   0.39753   0.41359   0.41934   0.42855
 Alpha virt. eigenvalues --    0.44985   0.47211   0.47655   0.48621   0.50142
 Alpha virt. eigenvalues --    0.51303   0.52640   0.53548   0.53923   0.55385
 Alpha virt. eigenvalues --    0.55605   0.56153   0.56977   0.57183   0.57882
 Alpha virt. eigenvalues --    0.58017   0.58403   0.58765   0.59050   0.59345
 Alpha virt. eigenvalues --    0.59602   0.60331   0.60866   0.61063   0.61254
 Alpha virt. eigenvalues --    0.61443   0.61628   0.61815   0.62451   0.62646
 Alpha virt. eigenvalues --    0.63454   0.63843   0.64459   0.64804   0.65351
 Alpha virt. eigenvalues --    0.65926   0.66402   0.66748   0.67308   0.67466
 Alpha virt. eigenvalues --    0.67631   0.68405   0.68810   0.69639   0.70038
 Alpha virt. eigenvalues --    0.70529   0.70877   0.71617   0.71753   0.72467
 Alpha virt. eigenvalues --    0.72997   0.73666   0.73930   0.74512   0.75217
 Alpha virt. eigenvalues --    0.75483   0.76015   0.76225   0.76776   0.77489
 Alpha virt. eigenvalues --    0.78061   0.78419   0.79062   0.79946   0.80911
 Alpha virt. eigenvalues --    0.81101   0.81371   0.82393   0.83100   0.83489
 Alpha virt. eigenvalues --    0.84333   0.84899   0.85271   0.85431   0.86359
 Alpha virt. eigenvalues --    0.87021   0.87833   0.88071   0.88307   0.88558
 Alpha virt. eigenvalues --    0.89264   0.89767   0.90293   0.90418   0.90645
 Alpha virt. eigenvalues --    0.91127   0.91489   0.92222   0.92669   0.92774
 Alpha virt. eigenvalues --    0.92938   0.93472   0.93851   0.94177   0.94640
 Alpha virt. eigenvalues --    0.95227   0.95496   0.96355   0.96482   0.96606
 Alpha virt. eigenvalues --    0.96813   0.96905   0.97206   0.97623   0.97980
 Alpha virt. eigenvalues --    0.98440   0.98939   0.99188   0.99454   0.99770
 Alpha virt. eigenvalues --    1.00176   1.00375   1.01619   1.01715   1.01930
 Alpha virt. eigenvalues --    1.02454   1.02985   1.03606   1.03923   1.04160
 Alpha virt. eigenvalues --    1.04711   1.05396   1.05967   1.06312   1.06818
 Alpha virt. eigenvalues --    1.07828   1.08032   1.08494   1.10231   1.11078
 Alpha virt. eigenvalues --    1.11703   1.12535   1.12626   1.13723   1.14073
 Alpha virt. eigenvalues --    1.15090   1.15509   1.16422   1.17450   1.18221
 Alpha virt. eigenvalues --    1.18767   1.19077   1.19575   1.20892   1.21610
 Alpha virt. eigenvalues --    1.22186   1.23032   1.24000   1.24476   1.25354
 Alpha virt. eigenvalues --    1.26075   1.26850   1.27428   1.28157   1.28776
 Alpha virt. eigenvalues --    1.30133   1.30443   1.30982   1.31614   1.33110
 Alpha virt. eigenvalues --    1.33813   1.34641   1.35181   1.36046   1.36476
 Alpha virt. eigenvalues --    1.37242   1.38753   1.39366   1.39499   1.40630
 Alpha virt. eigenvalues --    1.41306   1.41878   1.43503   1.43679   1.44620
 Alpha virt. eigenvalues --    1.45479   1.46322   1.47721   1.48338   1.49270
 Alpha virt. eigenvalues --    1.49582   1.50185   1.51151   1.51500   1.51812
 Alpha virt. eigenvalues --    1.52368   1.53015   1.54187   1.54845   1.55348
 Alpha virt. eigenvalues --    1.55747   1.56416   1.57290   1.58222   1.58500
 Alpha virt. eigenvalues --    1.59970   1.60468   1.61427   1.61825   1.63536
 Alpha virt. eigenvalues --    1.66897   1.67825   1.69623   1.70310   1.71504
 Alpha virt. eigenvalues --    1.72626   1.73793   1.74899   1.75754   1.77024
 Alpha virt. eigenvalues --    1.77970   1.79058   1.79130   1.80040   1.81392
 Alpha virt. eigenvalues --    1.81655   1.82561   1.82917   1.84547   1.84730
 Alpha virt. eigenvalues --    1.85661   1.86486   1.86713   1.87366   1.88032
 Alpha virt. eigenvalues --    1.88786   1.89421   1.90349   1.91220   1.91678
 Alpha virt. eigenvalues --    1.92161   1.92451   1.92607   1.93292   1.93572
 Alpha virt. eigenvalues --    1.94338   1.94417   1.95145   1.95689   1.96414
 Alpha virt. eigenvalues --    1.97015   1.97697   1.98557   1.98929   1.99795
 Alpha virt. eigenvalues --    2.00284   2.01021   2.01835   2.02762   2.03252
 Alpha virt. eigenvalues --    2.03626   2.03730   2.03868   2.05145   2.05437
 Alpha virt. eigenvalues --    2.05941   2.06270   2.06943   2.07271   2.07608
 Alpha virt. eigenvalues --    2.08605   2.08722   2.09700   2.10577   2.11263
 Alpha virt. eigenvalues --    2.11831   2.12452   2.12974   2.13885   2.14294
 Alpha virt. eigenvalues --    2.14959   2.15715   2.16152   2.16326   2.17400
 Alpha virt. eigenvalues --    2.18385   2.18939   2.19627   2.20658   2.20966
 Alpha virt. eigenvalues --    2.21727   2.22021   2.22914   2.24012   2.24243
 Alpha virt. eigenvalues --    2.25069   2.25233   2.25600   2.27202   2.28299
 Alpha virt. eigenvalues --    2.28896   2.29383   2.30425   2.30922   2.31919
 Alpha virt. eigenvalues --    2.32072   2.32489   2.33005   2.34741   2.35331
 Alpha virt. eigenvalues --    2.35771   2.36516   2.36963   2.38061   2.38368
 Alpha virt. eigenvalues --    2.39384   2.39699   2.39976   2.41457   2.42068
 Alpha virt. eigenvalues --    2.42809   2.43576   2.44386   2.45021   2.46611
 Alpha virt. eigenvalues --    2.48758   2.50327   2.51432   2.51444   2.52069
 Alpha virt. eigenvalues --    2.53346   2.54361   2.54929   2.56125   2.56356
 Alpha virt. eigenvalues --    2.59276   2.60257   2.61424   2.62197   2.63326
 Alpha virt. eigenvalues --    2.63547   2.65407   2.65862   2.66765   2.68013
 Alpha virt. eigenvalues --    2.68509   2.68737   2.69811   2.70796   2.71319
 Alpha virt. eigenvalues --    2.72801   2.73364   2.74296   2.76398   2.76776
 Alpha virt. eigenvalues --    2.77068   2.77868   2.79599   2.79628   2.80340
 Alpha virt. eigenvalues --    2.83466   2.83978   2.86154   2.87211   2.88979
 Alpha virt. eigenvalues --    2.92724   2.93522   2.94171   2.95628   2.96722
 Alpha virt. eigenvalues --    2.99252   2.99708   3.01336   3.02414   3.10438
 Alpha virt. eigenvalues --    3.17565   3.20031   3.23724   3.42619   3.43187
 Alpha virt. eigenvalues --    3.96301   4.01079   4.07334   4.10478   4.12206
 Alpha virt. eigenvalues --    4.14112   4.15634   4.17280   4.17957   4.19871
 Alpha virt. eigenvalues --    4.22106   4.24546   4.24803   4.26330   4.26772
 Alpha virt. eigenvalues --    4.30267   4.31045   4.32480   4.34790   4.35829
 Alpha virt. eigenvalues --    4.36748   4.38114   4.39119   4.41572   4.44003
 Alpha virt. eigenvalues --    4.46760   4.49466   4.51298   4.58407   4.58837
 Alpha virt. eigenvalues --    4.62112   4.64039   4.65769   4.75099   4.75479
 Alpha virt. eigenvalues --    4.78274
          Condensed to atoms (all electrons):
 Mulliken charges:
               1
     1  C   -0.303944
     2  C   -0.304193
     3  C   -0.309741
     4  C   -0.073385
     5  C    0.062183
     6  C   -0.305243
     7  H    0.165875
     8  H    0.160913
     9  H    0.159154
    10  H    0.146487
    11  H    0.156646
    12  H    0.213031
    13  H    0.141481
    14  H    0.179631
    15  H    0.149079
    16  H    0.150965
    17  N   -0.424522
    18  C    0.100295
    19  C    0.084096
    20  C   -0.227931
    21  H    0.205294
    22  C   -0.227194
    23  H    0.264301
    24  C    0.428452
    25  H    0.188241
    26  H    0.206857
    27  N   -0.529157
    28  C   -0.157283
    29  H    0.178414
    30  H    0.199155
    31  C   -0.147222
    32  H    0.169539
    33  H    0.196162
    34  N   -0.754996
    35  S    1.249368
    36  O   -0.647099
    37  O   -0.670762
    38  C    0.048731
    39  C   -0.177214
    40  C   -0.187004
    41  C   -0.170006
    42  C   -0.162255
    43  C   -0.197673
    44  H    0.202465
    45  H    0.139428
    46  H    0.156414
    47  H    0.161803
    48  H    0.156526
    49  O   -0.711120
    50  H    0.480849
    51  C    0.645514
    52  O   -0.523457
    53  O   -0.644422
    54  H    0.485610
    55  C   -0.367253
    56  H    0.200169
    57  H    0.163935
    58  C   -0.068185
    59  H    0.128669
    60  H    0.159470
    61  C   -0.656046
    62  H    0.218754
    63  H    0.188150
    64  H    0.208064
    65  C   -0.287037
    66  H    0.143291
    67  H    0.167255
    68  C   -0.480417
    69  H    0.158365
    70  H    0.158607
    71  H    0.149915
    72  C   -0.337394
    73  H    0.184035
    74  H    0.170067
    75  C   -0.335652
    76  H    0.182780
    77  H    0.173321
 Sum of Mulliken charges =  -0.00000
 Mulliken charges with hydrogens summed into heavy atoms:
               1
     1  C   -0.000810
     2  C    0.015874
     3  C    0.007099
     4  C    0.139646
     5  C    0.203664
     6  C    0.023467
    17  N   -0.424522
    18  C    0.305589
    19  C    0.348397
    20  C   -0.039690
    22  C   -0.020337
    24  C    0.428452
    27  N   -0.529157
    28  C    0.220286
    31  C    0.218479
    34  N   -0.754996
    35  S    1.249368
    36  O   -0.647099
    37  O   -0.670762
    38  C    0.048731
    39  C    0.025251
    40  C   -0.047577
    41  C   -0.013592
    42  C   -0.000451
    43  C   -0.041147
    49  O   -0.230271
    51  C    0.645514
    52  O   -0.523457
    53  O   -0.158812
    55  C   -0.003149
    58  C    0.219954
    61  C   -0.041079
    65  C    0.023509
    68  C   -0.013530
    72  C    0.016708
    75  C    0.020449
 Electronic spatial extent (au):  <R**2>=          15113.7253
 Charge=              0.0000 electrons
 Dipole moment (field-independent basis, Debye):
    X=              1.5621    Y=             -0.4044    Z=             -6.5039  Tot=              6.7010
 Quadrupole moment (field-independent basis, Debye-Ang):
   XX=           -197.9412   YY=           -223.3933   ZZ=           -221.7462
   XY=            -12.0915   XZ=             -1.3350   YZ=             12.3364
 Traceless Quadrupole moment (field-independent basis, Debye-Ang):
   XX=             16.4190   YY=             -9.0331   ZZ=             -7.3860
   XY=            -12.0915   XZ=             -1.3350   YZ=             12.3364
 Octapole moment (field-independent basis, Debye-Ang**2):
  XXX=             76.5614  YYY=            -29.2720  ZZZ=              1.6169  XYY=             21.4294
  XXY=            -13.2643  XXZ=            -24.4970  XZZ=             -7.3708  YZZ=             19.0972
  YYZ=              8.6496  XYZ=            -16.3604
 Hexadecapole moment (field-independent basis, Debye-Ang**3):
 XXXX=         -10052.5434 YYYY=          -5812.1837 ZZZZ=          -3864.0532 XXXY=           -176.8366
 XXXZ=            -16.9160 YYYX=           -101.0538 YYYZ=             88.6235 ZZZX=            -81.4046
 ZZZY=              8.6181 XXYY=          -2650.0627 XXZZ=          -2381.5996 YYZZ=          -1740.6491
 XXYZ=             44.9442 YYXZ=             57.5753 ZZXY=            -41.4663
 N-N= 4.883862735139D+03 E-N=-1.442027169709D+04  KE= 1.976465132875D+03
 No NMR shielding tensors so no spin-rotation constants.
 Leave Link  601 at Fri Feb  8 00:49:30 2019, MaxMem=   104857600 cpu:              24.3 elap:               1.1
 (Enter /home/xinyan/g16/l701.exe)
 ... and contract with generalized density number  0.
 Compute integral first derivatives.
 R6Disp: Adding Grimme-D3 dispersion energy 1st derivatives to the gradient.
 Leave Link  701 at Fri Feb  8 00:49:31 2019, MaxMem=   104857600 cpu:              21.3 elap:               1.0
 (Enter /home/xinyan/g16/l702.exe)
 L702 exits ... SP integral derivatives will be done elsewhere.
 Leave Link  702 at Fri Feb  8 00:49:31 2019, MaxMem=   104857600 cpu:               1.4 elap:               0.1
 (Enter /home/xinyan/g16/l703.exe)
 Integral derivatives from FoFJK, PRISM(SPDF).
 Compute integral first derivatives, UseDBF=F ICtDFT=           0.
 Calling FoFJK, ICntrl=      2127 FMM=T ISym2X=0 I1Cent= 0 IOpClX= 0 NMat=1 NMatS=1 NMatT=0.
 FoFJK:  IHMeth= 1 ICntrl=    2127 DoSepK=F KAlg= 0 I1Cent=           0 FoldK=F
 IRaf=         0 NMat=       1 IRICut=       1 DoRegI=T DoRafI=F ISym2E= 0 IDoP0=0 IntGTp=1.
 FoFCou: FMM=T IPFlag=           0 FMFlag=      100000 FMFlg1=        2001
         NFxFlg=           0 DoJE=F BraDBF=F KetDBF=F FulRan=T
         wScrn=  0.000000 ICntrl=      2127 IOpCl=  0 I1Cent=           0 NGrid=           0
         NMat0=    1 NMatS0=      1 NMatT0=    0 NMatD0=    1 NMtDS0=    0 NMtDT0=    0
 Symmetry not used in FoFCou.
 FMM levels:  10  Number of levels for PrismC:   9
 Leave Link  703 at Fri Feb  8 00:50:04 2019, MaxMem=   104857600 cpu:             761.6 elap:              32.7
 (Enter /home/xinyan/g16/l716.exe)
 Dipole        = 6.14588654D-01-1.59085551D-01-2.55881931D+00
 ***** Axes restored to original set *****
 -------------------------------------------------------------------
 Center     Atomic                   Forces (Hartrees/Bohr)
 Number     Number              X              Y              Z
 -------------------------------------------------------------------
      1        6          -0.000001848   -0.000090579   -0.000077230
      2        6           0.000080442    0.000005627    0.000111301
      3        6           0.000032894   -0.000017640    0.000008610
      4        6           0.000033519    0.000152535    0.000195125
      5        6          -0.000044002    0.000095537   -0.000095099
      6        6           0.000042938    0.000107568    0.000167435
      7        1           0.000018818    0.000068894    0.000025880
      8        1           0.000034246    0.000010465    0.000051090
      9        1           0.000006730    0.000039584    0.000080137
     10        1          -0.000018893    0.000048348    0.000072889
     11        1           0.000006740    0.000001039    0.000094965
     12        1           0.000066740   -0.000037539    0.000160803
     13        1          -0.000018528   -0.000144637    0.000190966
     14        1           0.000031806    0.000000165    0.000078986
     15        1           0.000044642    0.000003771    0.000080450
     16        1          -0.000033258    0.000073465    0.000051691
     17        7           0.000017357   -0.000009723    0.000067968
     18        6           0.000000756    0.000049739    0.000002237
     19        6           0.000043234    0.000047615   -0.000021349
     20        6           0.000020048    0.000035252    0.000025671
     21        1           0.000044792    0.000109803    0.000074420
     22        6          -0.000003051   -0.000030858    0.000003374
     23        1           0.000027359    0.000042484    0.000043257
     24        6           0.000042145   -0.000052945   -0.000053572
     25        1           0.000016357    0.000062960    0.000021603
     26        1           0.000021376    0.000001188   -0.000017519
     27        7           0.000037377    0.000017235   -0.000037156
     28        6           0.000034855   -0.000103720   -0.000088055
     29        1           0.000011547   -0.000074607   -0.000130295
     30        1           0.000064395   -0.000095866   -0.000064201
     31        6           0.000037846   -0.000001663   -0.000060221
     32        1          -0.000012677    0.000003840   -0.000054758
     33        1           0.000026811    0.000010907    0.000009442
     34        7           0.000176137    0.000125313   -0.000002457
     35       16          -0.000051194   -0.000130339   -0.000004413
     36        8           0.000111621    0.000231307   -0.000022030
     37        8          -0.000066163   -0.000027243    0.000029374
     38        6          -0.000186468    0.000010341   -0.000145348
     39        6          -0.000063440    0.000094126   -0.000081391
     40        6           0.000049878    0.000009115   -0.000061542
     41        6           0.000037732    0.000026833   -0.000124879
     42        6           0.000016244   -0.000052687   -0.000238726
     43        6          -0.000100557   -0.000028803   -0.000142567
     44        1          -0.000090607    0.000068467   -0.000019488
     45        1           0.000118175    0.000042957   -0.000011507
     46        1           0.000162110   -0.000041466   -0.000181255
     47        1          -0.000016572   -0.000046689   -0.000290835
     48        1          -0.000194306   -0.000036137   -0.000225301
     49        8           0.000095722    0.000181862   -0.000077054
     50        1           0.000083216   -0.000034470   -0.000018921
     51        6           0.000100075    0.000055089    0.000067957
     52        8          -0.000101543   -0.000023572    0.000205512
     53        8           0.000025511    0.000127213   -0.000061561
     54        1          -0.000139121    0.000027234    0.000149317
     55        6           0.000065522   -0.000054146    0.000025257
     56        1           0.000113837   -0.000023286    0.000133369
     57        1           0.000064631   -0.000084185   -0.000034142
     58        6          -0.000292258   -0.000021612   -0.000087652
     59        1          -0.000408125   -0.000274890   -0.000056739
     60        1          -0.000463224    0.000228845    0.000148799
     61        6          -0.000007837   -0.000151887    0.000041061
     62        1           0.000055577    0.000083581    0.000091973
     63        1          -0.000049134    0.000005110    0.000072512
     64        1          -0.000021278   -0.000017922    0.000033036
     65        6           0.000036467   -0.000007530    0.000060059
     66        1          -0.000051044    0.000044729    0.000059229
     67        1          -0.000044658    0.000061082    0.000145615
     68        6           0.000036723    0.000016711    0.000073128
     69        1          -0.000034130    0.000033803    0.000123254
     70        1           0.000072721   -0.000050357    0.000141297
     71        1           0.000009679   -0.000023277    0.000002147
     72        6           0.000036099   -0.000095991   -0.000140675
     73        1           0.000068141   -0.000168448   -0.000149938
     74        1          -0.000030299   -0.000099267   -0.000182751
     75        6           0.000047309   -0.000112304   -0.000039628
     76        1           0.000081033   -0.000131286   -0.000035532
     77        1           0.000034286   -0.000064168   -0.000085414
 -------------------------------------------------------------------
 Cartesian Forces:  Max     0.000463224 RMS     0.000098223
 Z-matrix is all fixed cartesians, so copy forces.
 Leave Link  716 at Fri Feb  8 00:50:04 2019, MaxMem=   104857600 cpu:               2.4 elap:               0.1
 (Enter /home/xinyan/g16/l103.exe)

 GradGradGradGradGradGradGradGradGradGradGradGradGradGradGradGradGradGrad
 Berny optimization.
 Search for a local minimum.
 Step number   1 out of a maximum of    2
 All quantities printed in internal units (Hartrees-Bohrs-Radians)
 Second derivative matrix not updated -- first step.
 ITU=  0
     Eigenvalues ---    0.00000   0.00000   0.00000   0.00000   0.00000
     Eigenvalues ---    0.00000   0.00000   0.00000   0.00000   0.00000
     Eigenvalues ---    0.00000   0.00000   0.00013   0.00018   0.00033
     Eigenvalues ---    0.00063   0.00116   0.00133   0.00164   0.00181
     Eigenvalues ---    0.00204   0.00218   0.00276   0.00284   0.00394
     Eigenvalues ---    0.00447   0.00510   0.00512   0.00591   0.00595
     Eigenvalues ---    0.00664   0.00675   0.00777   0.00975   0.01054
     Eigenvalues ---    0.01233   0.01645   0.01723   0.01772   0.01836
     Eigenvalues ---    0.01888   0.02010   0.02217   0.02390   0.02521
     Eigenvalues ---    0.02580   0.02713   0.02802   0.03094   0.03507
     Eigenvalues ---    0.03543   0.03561   0.03589   0.03649   0.04082
     Eigenvalues ---    0.04168   0.04218   0.04309   0.04527   0.04800
     Eigenvalues ---    0.04860   0.04879   0.05001   0.05048   0.05069
     Eigenvalues ---    0.05103   0.05133   0.05167   0.05301   0.05351
     Eigenvalues ---    0.05497   0.05594   0.05666   0.05696   0.05749
     Eigenvalues ---    0.05766   0.05794   0.06145   0.06259   0.06384
     Eigenvalues ---    0.06489   0.06512   0.06844   0.06965   0.07026
     Eigenvalues ---    0.07104   0.07195   0.07236   0.07294   0.07347
     Eigenvalues ---    0.07554   0.07904   0.07937   0.08018   0.08126
     Eigenvalues ---    0.08175   0.08569   0.08688   0.09117   0.09675
     Eigenvalues ---    0.09751   0.10016   0.10101   0.10209   0.10305
     Eigenvalues ---    0.11206   0.11412   0.11564   0.11920   0.12377
     Eigenvalues ---    0.12903   0.12917   0.13010   0.13024   0.13292
     Eigenvalues ---    0.13729   0.13786   0.13947   0.14191   0.14358
     Eigenvalues ---    0.15822   0.16366   0.16615   0.16643   0.16721
     Eigenvalues ---    0.16906   0.17208   0.17331   0.17628   0.17712
     Eigenvalues ---    0.18612   0.19088   0.20310   0.20653   0.20731
     Eigenvalues ---    0.20966   0.21791   0.22010   0.23186   0.24746
     Eigenvalues ---    0.26466   0.27617   0.29696   0.29793   0.30083
     Eigenvalues ---    0.30263   0.31620   0.32496   0.34304   0.34847
     Eigenvalues ---    0.35046   0.36704   0.39322   0.41752   0.42379
     Eigenvalues ---    0.43984   0.44944   0.45100   0.48452   0.49322
     Eigenvalues ---    0.50302   0.56065   0.57342   0.59201   0.62532
     Eigenvalues ---    0.65063   0.65800   0.68005   0.68298   0.69265
     Eigenvalues ---    0.70683   0.75539   0.77974   0.78410   0.79662
     Eigenvalues ---    0.82271   0.83020   0.83949   0.85864   0.87090
     Eigenvalues ---    0.89004   0.89460   0.90561   0.91140   0.92361
     Eigenvalues ---    0.93345   0.94078   0.94504   0.95436   0.95824
     Eigenvalues ---    0.96065   0.97476   0.99793   0.99952   1.00278
     Eigenvalues ---    1.01188   1.02035   1.04074   1.04478   1.05544
     Eigenvalues ---    1.05974   1.06216   1.06478   1.07880   1.08798
     Eigenvalues ---    1.10002   1.14199   1.16426   1.17534   1.20130
     Eigenvalues ---    1.23019   1.24070   1.28167   1.37034   1.40043
     Eigenvalues ---    1.48403   1.54104   1.57146   1.59438   1.60475
     Eigenvalues ---    1.71188   1.75741   1.81772   2.11283   2.28536
 Eigenvalue     1 is   0.00D+00 Eigenvector:
                          X69       X66       X67       X68       X65
   1                    0.18369   0.18369   0.18369   0.18369   0.18369
                          X71       X70       X52       X55       X51
   1                    0.18369   0.18369   0.18369   0.18369   0.18369
 Eigenvalue     2 is   2.22D-16 Eigenvector:
                          Y49       Y60       Y59       Y50       Y58
   1                    0.13867   0.13867   0.13867   0.13867   0.13867
                          Y44       Y38       Y48       Y39       Y43
   1                    0.13867   0.13867   0.13867   0.13867   0.13867
 Eigenvalue     3 is   8.88D-16 Eigenvector:
                          Y53       Y56       Y54       Y57       Y55
   1                    0.15087   0.15087   0.15087   0.15087   0.15087
                          Y51       Y70       Y71       Y68       Y65
   1                    0.15087   0.15087   0.15087   0.15087   0.15087
 Eigenvalue     4 is   2.73D-09 Eigenvector:
                          Z44       Z49       Z50       Z45       X59
   1                    0.28012   0.25427   0.25354   0.22750  -0.21265
                          Z39       X60       Z40       X49       Z60
   1                    0.20187  -0.18320   0.17212  -0.17195   0.16878
 Eigenvalue     5 is   7.07D-09 Eigenvector:
                          Z47       X46       X45       Z48       X41
   1                    0.23266  -0.23235  -0.22694   0.19045  -0.18182
                          X40       Z42       Z43       Y49       Z46
   1                   -0.17855   0.16850   0.14475  -0.13291   0.12823
 Eigenvalue     6 is   1.07D-08 Eigenvector:
                          Z54       Z53       Z52       Z69       Z51
   1                    0.44922   0.33596   0.31452  -0.26845   0.25334
                          Z70       Z71       Z68       Y66       Y69
   1                   -0.23896  -0.23734  -0.20161  -0.17016  -0.15032
 Eigenvalue     7 is   2.27D-08 Eigenvector:
                          X54       X69       X53       Y54       X70
   1                    0.40166  -0.33831   0.33270  -0.26685  -0.25382
                          Y71       X68       X51       X52       Y53
   1                    0.22957  -0.22194   0.20515   0.19709  -0.18437
 Eigenvalue     8 is   3.91D-08 Eigenvector:
                          Y47       X50       Y44       X49       Y49
   1                    0.35875  -0.35247  -0.26657  -0.25264  -0.23722
                          Y60       Y42       X47       Y48       Y46
   1                   -0.23155   0.21992   0.21223   0.20901   0.19103
 Eigenvalue     9 is   8.85D-08 Eigenvector:
                          Y45       Y59       Y46       Y40       X45
   1                    0.29238  -0.22608   0.21531   0.19144   0.18650
                          Y48       Z69       Z70       Y41       X46
   1                   -0.16642  -0.15191  -0.14890   0.14843   0.14279
 Eigenvalue    10 is   1.15D-07 Eigenvector:
                          X60       X59       Y48       X48       Y59
   1                    0.21505   0.20663   0.17936   0.17772   0.16962
                          Y45       X58       X45       Y73       Y77
   1                   -0.16087   0.15844  -0.15000   0.14224   0.12358
 Eigenvalue    11 is   1.76D-07 Eigenvector:
                          Y64       Y62       Y61       Y63       Y37
   1                    0.24974   0.20922   0.20211   0.18876   0.15197
                          Y45       Z76       Z60       Y46       Y7
   1                    0.14854  -0.14801   0.14736   0.14471  -0.14304
 Eigenvalue    12 is   3.97D-06 Eigenvector:
                          X52       X66       X56       Z67       Z57
   1                    0.34223   0.33187  -0.31117  -0.29987   0.29846
                          X70       Z71       Y52       Y67       Y57
   1                   -0.27891   0.24528  -0.20095  -0.19466   0.18628
 Quadratic step=1.106D+01 exceeds max=3.000D-01 adjusted using Lamda=-3.935D-03.
 Angle between NR and scaled steps=  19.16 degrees.
 Angle between quadratic step and forces=  30.84 degrees.
 Linear search not attempted -- first point.
 B after Tr=    -0.000292    0.000944   -0.000041
         Rot=    1.000000    0.000171    0.000018   -0.000016 Ang=   0.02 deg.
 Variable       Old X    -DE/DX   Delta X   Delta X   Delta X     New X
                                 (Linear)    (Quad)   (Total)
    X1       -9.34957  -0.00000   0.00000   0.00407   0.00378  -9.34579
    Y1        0.45901  -0.00009   0.00000   0.00365   0.00414   0.46315
    Z1       -0.48797  -0.00008   0.00000   0.01832   0.01778  -0.47018
    X2       -9.61168   0.00008   0.00000   0.00546   0.00531  -9.60637
    Y2       -1.91185   0.00001   0.00000   0.00456   0.00447  -1.90738
    Z2       -2.12768   0.00011   0.00000   0.01715   0.01741  -2.11027
    X3       -7.05592   0.00003   0.00000   0.00514   0.00505  -7.05086
    Y3       -2.66621  -0.00002   0.00000   0.00923   0.00884  -2.65738
    Z3       -3.26609   0.00001   0.00000   0.01412   0.01474  -3.25135
    X4       -5.17980   0.00003   0.00000   0.00728   0.00712  -5.17267
    Y4       -3.10501   0.00015   0.00000   0.00924   0.00964  -3.09537
    Z4       -1.12267   0.00020   0.00000   0.01253   0.01336  -1.10931
    X5       -4.80334  -0.00004   0.00000   0.00701   0.00672  -4.79663
    Y5       -0.66785   0.00010   0.00000   0.00846   0.00942  -0.65843
    Z5        0.47591  -0.00010   0.00000   0.01322   0.01323   0.48914
    X6       -7.37012   0.00004   0.00000   0.00725   0.00690  -7.36322
    Y6        0.10127   0.00011   0.00000   0.00574   0.00701   0.10828
    Z6        1.59328   0.00017   0.00000   0.01618   0.01583   1.60912
    X7       -7.22907   0.00002   0.00000   0.00631   0.00631  -7.22276
    Y7       -4.36614   0.00007   0.00000   0.01081   0.01001  -4.35613
    Z7       -4.43677   0.00003   0.00000   0.01170   0.01289  -4.42388
    X8      -10.33244   0.00003   0.00000   0.00858   0.00843 -10.32401
    Y8       -3.47912   0.00001   0.00000   0.00258   0.00287  -3.47625
    Z8       -0.97483   0.00005   0.00000   0.01635   0.01712  -0.95771
    X9      -10.98192   0.00001   0.00000   0.00357   0.00346 -10.97846
    Y9       -1.59852   0.00004   0.00000   0.00440   0.00376  -1.59476
    Z9       -3.64615   0.00008   0.00000   0.01880   0.01890  -3.62725
   X10       -8.77249  -0.00002   0.00000  -0.00035  -0.00064  -8.77313
   Y10        2.04962   0.00005   0.00000   0.00563   0.00573   2.05534
   Z10       -1.69261   0.00007   0.00000   0.01874   0.01768  -1.67493
   X11      -11.18191   0.00001   0.00000   0.00428   0.00394 -11.17796
   Y11        0.95607   0.00000   0.00000   0.00007   0.00078   0.95685
   Z11        0.33628   0.00009   0.00000   0.02104   0.02026   0.35654
   X12       -5.88712   0.00007   0.00000   0.01023   0.01008  -5.87704
   Y12       -4.60250  -0.00004   0.00000   0.00777   0.00857  -4.59393
   Z12        0.11221   0.00016   0.00000   0.01294   0.01426   0.12647
   X13       -4.28777  -0.00002   0.00000   0.00555   0.00526  -4.28250
   Y13        0.80903  -0.00014   0.00000   0.00898   0.00949   0.81852
   Z13       -0.89337   0.00019   0.00000   0.01426   0.01379  -0.87958
   X14       -7.98937   0.00003   0.00000   0.01033   0.00997  -7.97940
   Y14       -1.34832   0.00000   0.00000   0.00448   0.00618  -1.34214
   Z14        2.94102   0.00008   0.00000   0.01634   0.01647   2.95749
   X15       -7.09891   0.00004   0.00000   0.00668   0.00623  -7.09267
   Y15        1.86892   0.00000   0.00000   0.00547   0.00711   1.87603
   Z15        2.64102   0.00008   0.00000   0.01673   0.01579   2.65681
   X16       -6.40993  -0.00003   0.00000   0.00149   0.00140  -6.40854
   Y16       -1.11465   0.00007   0.00000   0.01199   0.01120  -1.10345
   Z16       -4.48557   0.00005   0.00000   0.01561   0.01572  -4.46985
   X17       -2.66106   0.00002   0.00000   0.00620   0.00610  -2.65495
   Y17       -3.97082  -0.00001   0.00000   0.01053   0.01072  -3.96011
   Z17       -1.98402   0.00007   0.00000   0.00785   0.00907  -1.97496
   X18       -1.40813   0.00000   0.00000   0.00475   0.00468  -1.40345
   Y18       -2.71958   0.00005   0.00000   0.01426   0.01385  -2.70573
   Z18       -3.82766   0.00000   0.00000   0.00929   0.01012  -3.81754
   X19       -1.35106   0.00004   0.00000   0.00683   0.00673  -1.34433
   Y19       -5.54875   0.00005   0.00000   0.00478   0.00552  -5.54322
   Z19       -0.45431  -0.00002   0.00000   0.00129   0.00310  -0.45121
   X20        1.13669   0.00002   0.00000   0.00352   0.00348   1.14016
   Y20       -2.96727   0.00004   0.00000   0.01030   0.00985  -2.95741
   Z20       -4.17380   0.00003   0.00000   0.00298   0.00400  -4.16981
   X21       -2.53197   0.00004   0.00000   0.00499   0.00492  -2.52705
   Y21       -1.46633   0.00011   0.00000   0.02039   0.01955  -1.44678
   Z21       -4.98965   0.00007   0.00000   0.01568   0.01604  -4.97361
   X22        1.19741  -0.00000   0.00000   0.00551   0.00543   1.20284
   Y22       -5.88689  -0.00003   0.00000  -0.00045   0.00030  -5.88660
   Z22       -0.67834   0.00000   0.00000  -0.00590  -0.00388  -0.68222
   X23       -2.43295   0.00003   0.00000   0.00847   0.00834  -2.42461
   Y23       -6.45045   0.00004   0.00000   0.00363   0.00485  -6.44560
   Z23        1.03500   0.00004   0.00000   0.00184   0.00392   1.03892
   X24        2.58093   0.00004   0.00000   0.00432   0.00426   2.58519
   Y24       -4.45314  -0.00005   0.00000   0.00071   0.00089  -4.45225
   Z24       -2.46209  -0.00005   0.00000  -0.00602  -0.00444  -2.46652
   X25        2.03232   0.00002   0.00000   0.00231   0.00229   2.03461
   Y25       -1.92574   0.00006   0.00000   0.01356   0.01262  -1.91312
   Z25       -5.68840   0.00002   0.00000   0.00448   0.00517  -5.68323
   X26        2.12371   0.00002   0.00000   0.00616   0.00606   2.12978
   Y26       -7.09454   0.00000   0.00000  -0.00565  -0.00441  -7.09895
   Z26        0.68418  -0.00002   0.00000  -0.01095  -0.00849   0.67569
   X27        5.11264   0.00004   0.00000   0.00413   0.00407   5.11670
   Y27       -4.47275   0.00002   0.00000  -0.00654  -0.00629  -4.47905
   Z27       -2.50145  -0.00004   0.00000  -0.01431  -0.01263  -2.51408
   X28        6.54597   0.00003   0.00000   0.00809   0.00799   6.55396
   Y28       -5.59571  -0.00010   0.00000  -0.02117  -0.02017  -5.61588
   Z28       -0.40845  -0.00009   0.00000  -0.02490  -0.02278  -0.43122
   X29        6.27714   0.00001   0.00000   0.00098   0.00094   6.27808
   Y29       -7.64483  -0.00007   0.00000  -0.02046  -0.01945  -7.66428
   Z29       -0.35270  -0.00013   0.00000  -0.03335  -0.03054  -0.38324
   X30        5.88183   0.00006   0.00000   0.01816   0.01797   5.89980
   Y30       -4.77736  -0.00010   0.00000  -0.02693  -0.02533  -4.80269
   Z30        1.38130  -0.00006   0.00000  -0.01849  -0.01667   1.36462
   X31        6.57938   0.00004   0.00000   0.00569   0.00561   6.58500
   Y31       -2.50529  -0.00000   0.00000  -0.00502  -0.00518  -2.51046
   Z31       -3.80576  -0.00006   0.00000  -0.01035  -0.00929  -3.81505
   X32        7.01209  -0.00001   0.00000  -0.00335  -0.00334   7.00876
   Y32       -3.10297   0.00000   0.00000   0.00290   0.00209  -3.10088
   Z32       -5.74295  -0.00005   0.00000  -0.01481  -0.01354  -5.75649
   X33        5.50152   0.00003   0.00000   0.01126   0.01113   5.51265
   Y33       -0.74346   0.00001   0.00000  -0.00126  -0.00146  -0.74491
   Z33       -3.84448   0.00001   0.00000   0.00223   0.00265  -3.84183
   X34       -2.67954   0.00018   0.00000   0.00785   0.00750  -2.67204
   Y34       -0.80071   0.00013   0.00000   0.00685   0.00847  -0.79225
   Z34        2.19849  -0.00000   0.00000   0.01197   0.01211   2.21059
   X35       -2.75065  -0.00005   0.00000   0.00356   0.00319  -2.74746
   Y35       -2.64890  -0.00013   0.00000   0.00092   0.00334  -2.64557
   Z35        4.54005  -0.00000   0.00000   0.00707   0.00783   4.54788
   X36       -4.78012   0.00011   0.00000   0.00075   0.00044  -4.77968
   Y36       -4.57057   0.00023   0.00000   0.00478   0.00709  -4.56347
   Z36        4.42375  -0.00002   0.00000  -0.00167  -0.00032   4.42343
   X37       -0.18172  -0.00007   0.00000   0.00121   0.00085  -0.18086
   Y37       -3.71358  -0.00003   0.00000  -0.00448  -0.00184  -3.71541
   Z37        4.96726   0.00003   0.00000   0.00727   0.00850   4.97576
   X38       -1.92495  -0.00019   0.00000  -0.03470  -0.03516  -1.96011
   Y38        5.13554   0.00001   0.00000   0.00058   0.00149   5.13703
   Z38        0.09182  -0.00015   0.00000  -0.01715  -0.01903   0.07280
   X39       -0.63236  -0.00006   0.00000  -0.00838  -0.00873  -0.64108
   Y39        3.82358   0.00009   0.00000   0.01183   0.01213   3.83571
   Z39       -1.80416  -0.00008   0.00000  -0.00702  -0.00839  -1.81255
   X40       -1.62069   0.00005   0.00000   0.01600   0.01574  -1.60494
   Y40        3.72794   0.00001   0.00000   0.00982   0.00925   3.73719
   Z40       -4.24283  -0.00006   0.00000  -0.01668  -0.01806  -4.26089
   X41       -3.92929   0.00004   0.00000   0.01620   0.01593  -3.91336
   Y41        4.86973   0.00003   0.00000  -0.00056  -0.00140   4.86833
   Z41       -4.80440  -0.00012   0.00000  -0.03802  -0.03987  -4.84428
   X42       -5.24167   0.00002   0.00000  -0.00868  -0.00906  -5.25072
   Y42        6.13893  -0.00005   0.00000  -0.00968  -0.00991   6.12902
   Z42       -2.90672  -0.00024   0.00000  -0.04932  -0.05165  -2.95837
   X43       -4.23325  -0.00010   0.00000  -0.03462  -0.03509  -4.26834
   Y43        6.27336  -0.00003   0.00000  -0.01018  -0.00955   6.26381
   Z43       -0.47905  -0.00014   0.00000  -0.03853  -0.04087  -0.51991
   X44        1.09459  -0.00009   0.00000  -0.00810  -0.00843   1.08615
   Y44        2.81046   0.00007   0.00000   0.01958   0.02010   2.83056
   Z44       -1.33195  -0.00002   0.00000   0.00793   0.00696  -1.32500
   X45       -0.58421   0.00012   0.00000   0.03508   0.03491  -0.54930
   Y45        2.74175   0.00004   0.00000   0.01626   0.01522   2.75697
   Z45       -5.71875  -0.00001   0.00000  -0.00752  -0.00852  -5.72727
   X46       -4.70156   0.00016   0.00000   0.03583   0.03564  -4.66593
   Y46        4.77539  -0.00004   0.00000  -0.00179  -0.00330   4.77209
   Z46       -6.70354  -0.00018   0.00000  -0.04590  -0.04775  -6.75129
   X47       -7.05102  -0.00002   0.00000  -0.00810  -0.00849  -7.05952
   Y47        7.01963  -0.00005   0.00000  -0.01644  -0.01688   7.00275
   Z47       -3.31131  -0.00029   0.00000  -0.06658  -0.06928  -3.38059
   X48       -5.26209  -0.00019   0.00000  -0.05415  -0.05471  -5.31680
   Y48        7.25489  -0.00004   0.00000  -0.01713  -0.01603   7.23886
   Z48        1.00601  -0.00023   0.00000  -0.04753  -0.05025   0.95577
   X49        0.50703   0.00010   0.00000  -0.01636  -0.01687   0.49016
   Y49        3.11990   0.00018   0.00000   0.02951   0.03164   3.15154
   Z49        3.42044  -0.00008   0.00000  -0.00998  -0.01108   3.40936
   X50       -0.54099   0.00008   0.00000   0.02381   0.02336  -0.51763
   Y50        1.63431  -0.00003   0.00000   0.00709   0.00900   1.64331
   Z50        2.89640  -0.00002   0.00000  -0.02700  -0.02762   2.86878
   X51        4.50178   0.00010   0.00000  -0.00189  -0.00229   4.49949
   Y51        0.38161   0.00006   0.00000   0.00144   0.00344   0.38505
   Z51        2.64059   0.00007   0.00000   0.02002   0.02001   2.66060
   X52        3.86020  -0.00010   0.00000  -0.01908  -0.01938   3.84082
   Y52       -0.35510  -0.00002   0.00000   0.00831   0.00957  -0.34553
   Z52        0.55361   0.00021   0.00000   0.02297   0.02318   0.57680
   X53        3.94089   0.00003   0.00000   0.00010  -0.00034   3.94055
   Y53       -0.80408   0.00013   0.00000   0.00333   0.00604  -0.79804
   Z53        4.76729  -0.00006   0.00000   0.02139   0.02177   4.78906
   X54        2.53495  -0.00014   0.00000  -0.01123  -0.01163   2.52333
   Y54       -2.03164   0.00003   0.00000   0.01457   0.01715  -2.01449
   Z54        4.50620   0.00015   0.00000   0.02821   0.02895   4.53515
   X55        6.12585   0.00007   0.00000   0.01317   0.01268   6.13853
   Y55        2.69042  -0.00005   0.00000  -0.00835  -0.00616   2.68426
   Z55        3.06776   0.00003   0.00000   0.01518   0.01445   3.08221
   X56        5.32379   0.00011   0.00000   0.03146   0.03088   5.35467
   Y56        3.70356  -0.00002   0.00000  -0.01159  -0.00887   3.69469
   Z56        4.68072   0.00013   0.00000   0.02645   0.02534   4.70606
   X57        8.01777   0.00006   0.00000   0.01512   0.01463   8.03239
   Y57        2.04907  -0.00008   0.00000  -0.01950  -0.01705   2.03201
   Z57        3.63997  -0.00003   0.00000  -0.00369  -0.00413   3.63584
   X58       -0.85459  -0.00029   0.00000  -0.06293  -0.06349  -0.91808
   Y58        5.28061  -0.00002   0.00000   0.00188   0.00373   5.28434
   Z58        2.74337  -0.00009   0.00000  -0.00549  -0.00738   2.73599
   X59       -2.41001  -0.00041   0.00000  -0.08501  -0.08563  -2.49563
   Y59        5.66944  -0.00027   0.00000  -0.04673  -0.04448   5.62497
   Z59        4.07499  -0.00006   0.00000  -0.01690  -0.01896   4.05603
   X60        0.45633  -0.00046   0.00000  -0.10276  -0.10338   0.35295
   Y60        6.88652   0.00023   0.00000   0.03243   0.03438   6.92090
   Z60        2.87187   0.00015   0.00000   0.02120   0.01880   2.89068
   X61       -3.32197  -0.00001   0.00000   0.00132   0.00079  -3.32118
   Y61       -0.74442  -0.00015   0.00000  -0.00670  -0.00336  -0.74778
   Z61        7.27771   0.00004   0.00000   0.01202   0.01212   7.28983
   X62       -1.88202   0.00006   0.00000   0.00162   0.00104  -1.88098
   Y62        0.73505   0.00008   0.00000  -0.00663  -0.00324   0.73181
   Z62        7.29519   0.00009   0.00000   0.01837   0.01801   7.31320
   X63       -5.20773  -0.00005   0.00000   0.00155   0.00100  -5.20673
   Y63        0.07525   0.00001   0.00000  -0.00564  -0.00242   0.07283
   Z63        7.10985   0.00007   0.00000   0.01257   0.01232   7.12217
   X64       -3.18476  -0.00002   0.00000  -0.00123  -0.00178  -3.18654
   Y64       -1.93036  -0.00002   0.00000  -0.01153  -0.00761  -1.93797
   Z64        8.95830   0.00003   0.00000   0.00877   0.00928   8.96758
   X65        6.26764   0.00004   0.00000   0.00023  -0.00022   6.26741
   Y65        4.38182  -0.00001   0.00000   0.00201   0.00341   4.38523
   Z65        0.74357   0.00006   0.00000   0.02197   0.02066   0.76423
   X66        6.97572  -0.00005   0.00000  -0.01345  -0.01381   6.96190
   Y66        3.28829   0.00004   0.00000   0.00851   0.00938   3.29767
   Z66       -0.86867   0.00006   0.00000   0.01161   0.01070  -0.85797
   X67        4.34429  -0.00004   0.00000  -0.00228  -0.00274   4.34156
   Y67        4.96357   0.00006   0.00000   0.00849   0.00967   4.97324
   Z67        0.24447   0.00015   0.00000   0.03874   0.03716   0.28163
   X68        7.92328   0.00004   0.00000   0.00705   0.00651   7.92979
   Y68        6.70169   0.00002   0.00000  -0.00293  -0.00132   6.70036
   Z68        1.17703   0.00007   0.00000   0.02215   0.02010   1.19714
   X69        8.01624  -0.00003   0.00000  -0.00469  -0.00521   8.01103
   Y69        7.88598   0.00003   0.00000   0.00686   0.00789   7.89386
   Z69       -0.51463   0.00012   0.00000   0.02840   0.02595  -0.48868
   X70        7.17926   0.00007   0.00000   0.02067   0.02003   7.19929
   Y70        7.86060  -0.00005   0.00000  -0.01101  -0.00889   7.85171
   Z70        2.72153   0.00014   0.00000   0.03478   0.03232   2.75384
   X71        9.85694   0.00001   0.00000   0.01011   0.00956   9.86650
   Y71        6.15792  -0.00002   0.00000  -0.00856  -0.00673   6.15119
   Z71        1.67859   0.00000   0.00000   0.00391   0.00212   1.68071
   X72        9.27054   0.00004   0.00000   0.00845   0.00834   9.27889
   Y72       -4.83639  -0.00010   0.00000  -0.02866  -0.02777  -4.86416
   Z72       -0.97268  -0.00014   0.00000  -0.03294  -0.03097  -1.00365
   X73       10.42826   0.00007   0.00000   0.01627   0.01610  10.44436
   Y73       -4.80159  -0.00017   0.00000  -0.04217  -0.04066  -4.84225
   Z73        0.73476  -0.00015   0.00000  -0.03796  -0.03596   0.69880
   X74       10.11973  -0.00003   0.00000  -0.00283  -0.00284  10.11689
   Y74       -6.16839  -0.00010   0.00000  -0.02476  -0.02431  -6.19269
   Z74       -2.30894  -0.00018   0.00000  -0.04399  -0.04154  -2.35049
   X75        8.96424   0.00005   0.00000   0.01243   0.01229   8.97652
   Y75       -2.23076  -0.00011   0.00000  -0.02114  -0.02067  -2.25143
   Z75       -2.19053  -0.00004   0.00000  -0.01759  -0.01653  -2.20707
   X76        8.60768   0.00008   0.00000   0.02213   0.02189   8.62957
   Y76       -0.81462  -0.00013   0.00000  -0.02817  -0.02720  -0.84183
   Z76       -0.72745  -0.00004   0.00000  -0.00848  -0.00792  -0.73537
   X77       10.60295   0.00003   0.00000   0.01012   0.01000  10.61295
   Y77       -1.64355  -0.00006   0.00000  -0.02008  -0.01994  -1.66349
   Z77       -3.29846  -0.00009   0.00000  -0.02046  -0.01954  -3.31800
         Item               Value     Threshold  Converged?
 Maximum Force            0.000463     0.000450     NO 
 RMS     Force            0.000098     0.000300     YES
 Maximum Displacement     0.103379     0.001800     NO 
 RMS     Displacement     0.019739     0.001200     NO 
 Predicted change in Energy=-3.742515D-04
 GradGradGradGradGradGradGradGradGradGradGradGradGradGradGradGradGradGrad

 Leave Link  103 at Fri Feb  8 00:50:05 2019, MaxMem=   104857600 cpu:              19.1 elap:               0.9
 (Enter /home/xinyan/g16/l9999.exe)
 1\1\GINC-TSE4\Force\RM062X\6-31G(d)\C27H41N3O5S1\STEVETSE\08-Feb-2019\
 0\\#p M062X/6-31G* em=gd3 force int=ultrafine\\Title\\0,1\C,-4.94758,0
 .2429,-0.25822\C,-5.08628,-1.01171,-1.12592\C,-3.73383,-1.4109,-1.7283
 4\C,-2.74103,-1.6431,-0.59409\C,-2.54182,-0.35341,0.25184\C,-3.9001,0.
 05359,0.84313\H,-3.82546,-2.31046,-2.34784\H,-5.46769,-1.84107,-0.5158
 6\H,-5.81138,-0.8459,-1.92946\H,-4.6422,1.08461,-0.89569\H,-5.91721,0.
 50593,0.17795\H,-3.11533,-2.43554,0.05938\H,-2.26899,0.42812,-0.47275\
 H,-4.22779,-0.7135,1.55632\H,-3.75658,0.98899,1.39757\H,-3.39199,-0.58
 985,-2.37366\N,-1.40817,-2.10127,-1.0499\C,-0.74515,-1.43914,-2.02551\
 C,-0.71495,-2.93627,-0.24041\C,0.60151,-1.57021,-2.20868\H,-1.33986,-0
 .77595,-2.64041\C,0.63364,-3.11521,-0.35896\H,-1.28746,-3.41343,0.5477
 \C,1.36577,-2.3565,-1.30288\H,1.07546,-1.01906,-3.01017\H,1.12382,-3.7
 5427,0.36205\N,2.70549,-2.36688,-1.32371\C,3.46398,-2.96112,-0.21614\H
 ,3.32172,-4.04547,-0.18664\H,3.11253,-2.52807,0.73095\C,3.48166,-1.325
 74,-2.01392\H,3.71064,-1.64202,-3.03904\H,2.91128,-0.39342,-2.03441\N,
 -1.41795,-0.42372,1.16339\S,-1.45558,-1.40174,2.40249\O,-2.52953,-2.41
 864,2.34095\O,-0.09616,-1.96514,2.62856\C,-1.01864,2.71761,0.04859\C,-
 0.33463,2.02335,-0.95472\C,-0.85763,1.97274,-2.24521\C,-2.07929,2.5769
 5,-2.54238\C,-2.77377,3.24858,-1.53817\C,-2.24014,3.31972,-0.2535\H,0.
 57923,1.48723,-0.70484\H,-0.30915,1.45087,-3.02623\H,-2.48796,2.52703,
 -3.54736\H,-3.73124,3.71463,-1.75227\H,-2.78458,3.83912,0.53236\O,0.26
 831,1.65098,1.81002\H,-0.28628,0.86484,1.53271\C,2.38224,0.20194,1.397
 34\O,2.04273,-0.18791,0.29296\O,2.08543,-0.4255,2.52274\H,1.34144,-1.0
 751,2.38458\C,3.24166,1.42371,1.62339\H,2.81723,1.95984,2.47693\H,4.24
 282,1.08432,1.92619\C,-0.45223,2.79438,1.45173\H,-1.27532,3.00014,2.15
 639\H,0.24148,3.64419,1.51973\C,-1.75791,-0.39393,3.8512\H,-0.99592,0.
 38897,3.86045\H,-2.75581,0.03982,3.76237\H,-1.6853,-1.0215,4.74053\C,3
 .31669,2.31876,0.39348\H,3.69139,1.74009,-0.45968\H,2.2989,2.62661,0.1
 2937\C,4.19282,3.54638,0.62286\H,4.24201,4.17308,-0.27233\H,3.7991,4.1
 5965,1.44017\H,5.21607,3.25863,0.88827\C,4.90576,-2.55931,-0.51472\H,5
 .5184,-2.54089,0.38882\H,5.35513,-3.26417,-1.22184\C,4.74367,-1.18047,
 -1.15918\H,4.55499,-0.43108,-0.38495\H,5.61084,-0.86973,-1.74547\\Vers
 ion=ES64L-G16RevA.03\State=1-A\HF=-1991.3896783\RMSD=4.696e-09\RMSF=9.
 822e-05\Dipole=0.5977065,-0.1461234,-2.5635871\Quadrupole=10.6036696,-
 5.5668086,-5.036861,-10.4049429,-0.5009714,9.2274489\PG=C01 [X(C27H41N
 3O5S1)]\\@


 MORNING PEOPLE ARE USUALLY ADMIRED AS EARLY BIRDS.
 RECALL BEN FRANKLIN'S APHORISM THAT THE EARLY BIRD GETS THE WORM.
 I IDENTIFY WITH THE WORM. --  CRAIG JAGGER, MINNEAPOLIS, KS.
 Job cpu time:       0 days  1 hours 17 minutes 19.7 seconds.
 Elapsed time:       0 days  0 hours  3 minutes 15.3 seconds.
 File lengths (MBytes):  RWF=    216 Int=      0 D2E=      0 Chk=     25 Scr=      1
 Normal termination of Gaussian 16 at Fri Feb  8 00:50:05 2019.
