 Entering Gaussian System, Link 0=g16
 Input=C27N3H41SO5-144.gjf
 Output=C27N3H41SO5-144.log
 Initial command:
 /home/xinyan/g16/l1.exe "/local/home/tmp/Gau-25501.inp" -scrdir="/local/home/tmp/"
 Entering Link 1 = /home/xinyan/g16/l1.exe PID=     25502.
  
 Copyright (c) 1988,1990,1992,1993,1995,1998,2003,2009,2016,
            Gaussian, Inc.  All Rights Reserved.
  
 This is part of the Gaussian(R) 16 program.  It is based on
 the Gaussian(R) 09 system (copyright 2009, Gaussian, Inc.),
 the Gaussian(R) 03 system (copyright 2003, Gaussian, Inc.),
 the Gaussian(R) 98 system (copyright 1998, Gaussian, Inc.),
 the Gaussian(R) 94 system (copyright 1995, Gaussian, Inc.),
 the Gaussian 92(TM) system (copyright 1992, Gaussian, Inc.),
 the Gaussian 90(TM) system (copyright 1990, Gaussian, Inc.),
 the Gaussian 88(TM) system (copyright 1988, Gaussian, Inc.),
 the Gaussian 86(TM) system (copyright 1986, Carnegie Mellon
 University), and the Gaussian 82(TM) system (copyright 1983,
 Carnegie Mellon University). Gaussian is a federally registered
 trademark of Gaussian, Inc.
  
 This software contains proprietary and confidential information,
 including trade secrets, belonging to Gaussian, Inc.
  
 This software is provided under written license and may be
 used, copied, transmitted, or stored only in accord with that
 written license.
  
 The following legend is applicable only to US Government
 contracts under FAR:
  
                    RESTRICTED RIGHTS LEGEND
  
 Use, reproduction and disclosure by the US Government is
 subject to restrictions as set forth in subparagraphs (a)
 and (c) of the Commercial Computer Software - Restricted
 Rights clause in FAR 52.227-19.
  
 Gaussian, Inc.
 340 Quinnipiac St., Bldg. 40, Wallingford CT 06492
  
  
 ---------------------------------------------------------------
 Warning -- This program may not be used in any manner that
 competes with the business of Gaussian, Inc. or will provide
 assistance to any competitor of Gaussian, Inc.  The licensee
 of this program is prohibited from giving any competitor of
 Gaussian, Inc. access to this program.  By using this program,
 the user acknowledges that Gaussian, Inc. is engaged in the
 business of creating and licensing software in the field of
 computational chemistry and represents and warrants to the
 licensee that it is not a competitor of Gaussian, Inc. and that
 it will not use this program in any manner prohibited above.
 ---------------------------------------------------------------
  

 Cite this work as:
 Gaussian 16, Revision A.03,
 M. J. Frisch, G. W. Trucks, H. B. Schlegel, G. E. Scuseria, 
 M. A. Robb, J. R. Cheeseman, G. Scalmani, V. Barone, 
 G. A. Petersson, H. Nakatsuji, X. Li, M. Caricato, A. V. Marenich, 
 J. Bloino, B. G. Janesko, R. Gomperts, B. Mennucci, H. P. Hratchian, 
 J. V. Ortiz, A. F. Izmaylov, J. L. Sonnenberg, D. Williams-Young, 
 F. Ding, F. Lipparini, F. Egidi, J. Goings, B. Peng, A. Petrone, 
 T. Henderson, D. Ranasinghe, V. G. Zakrzewski, J. Gao, N. Rega, 
 G. Zheng, W. Liang, M. Hada, M. Ehara, K. Toyota, R. Fukuda, 
 J. Hasegawa, M. Ishida, T. Nakajima, Y. Honda, O. Kitao, H. Nakai, 
 T. Vreven, K. Throssell, J. A. Montgomery, Jr., J. E. Peralta, 
 F. Ogliaro, M. J. Bearpark, J. J. Heyd, E. N. Brothers, K. N. Kudin, 
 V. N. Staroverov, T. A. Keith, R. Kobayashi, J. Normand, 
 K. Raghavachari, A. P. Rendell, J. C. Burant, S. S. Iyengar, 
 J. Tomasi, M. Cossi, J. M. Millam, M. Klene, C. Adamo, R. Cammi, 
 J. W. Ochterski, R. L. Martin, K. Morokuma, O. Farkas, 
 J. B. Foresman, and D. J. Fox, Gaussian, Inc., Wallingford CT, 2016.
 
 ******************************************
 Gaussian 16:  ES64L-G16RevA.03 25-Dec-2016
                 7-Feb-2019 
 ******************************************
 %nproc=24
 Will use up to   24 processors via shared memory.
 ------------------------------------------
 #p M062X/6-31G* em=gd3 force int=ultrafine
 ------------------------------------------
 1/10=7,30=1,38=1/1,3;
 2/12=2,17=6,18=5,40=1/2;
 3/5=1,6=6,7=1,11=2,25=1,30=1,71=1,74=-55,75=-5,124=31/1,2,3;
 4//1;
 5/5=2,38=5/2;
 6/7=2,8=2,9=2,10=2,28=1/1;
 7/29=1/1,2,3,16;
 1/10=7,30=1/3;
 99//99;
 Leave Link    1 at Thu Feb  7 16:29:42 2019, MaxMem=           0 cpu:               2.4 elap:               0.1
 (Enter /home/xinyan/g16/l101.exe)
 -----
 Title
 -----
 Symbolic Z-matrix:
 Charge =  0 Multiplicity = 1
 C                    -4.90048   0.2298   -0.46834 
 C                    -5.06501  -1.0354   -1.31575 
 C                    -3.72056  -1.47287  -1.91004 
 C                    -2.73914  -1.71549  -0.76935 
 C                    -2.52718  -0.42339   0.06226 
 C                    -3.86779   0.03645   0.64659 
 H                    -3.82768  -2.3778   -2.51776 
 H                    -5.46557  -1.84691  -0.69413 
 H                    -5.78526  -0.86472  -2.12203 
 H                    -4.57689   1.05467  -1.11642 
 H                    -5.86365   0.51945  -0.03565 
 H                    -3.1373   -2.49231  -0.10926 
 H                    -2.1901    0.35285  -0.63675 
 H                    -4.22931  -0.70589   1.36598 
 H                    -3.70194   0.97803   1.18068 
 H                    -3.35536  -0.66918  -2.56369 
 N                    -1.40567  -2.19014  -1.19371 
 C                    -0.70068  -1.50064  -2.12915 
 C                    -0.72754  -2.99233  -0.3294 
 C                     0.65712  -1.55445  -2.20083 
 H                    -1.27988  -0.87593  -2.79786 
 C                     0.62991  -3.07601  -0.32114 
 H                    -1.33408  -3.509     0.40652 
 C                     1.38969  -2.25409  -1.19568 
 H                     1.16249  -0.98199  -2.96662 
 H                     1.09977  -3.67382   0.44691 
 N                     2.70935  -2.14828  -1.08401 
 C                     3.41282  -2.59221   0.12987 
 H                     3.29487  -3.66996   0.27195 
 H                     2.99372  -2.04445   0.98717 
 C                     3.4549   -1.08993  -1.77679 
 H                     3.71616  -1.41728  -2.7906 
 H                     2.83143  -0.19299  -1.82733 
 N                    -1.435    -0.54458   1.01477 
 S                    -1.53157  -1.42791   2.38001 
 O                    -2.73095  -2.26886   2.3083 
 O                    -0.24632  -2.09817   2.5978 
 C                    -0.73205   2.48807   0.30954 
 C                    -0.24915   2.05752  -0.93607 
 C                    -1.02672   2.19015  -2.08461 
 C                    -2.30441   2.74729  -2.02241 
 C                    -2.79833   3.17148  -0.79229 
 C                    -2.01371   3.04339   0.35434 
 H                     0.71536   1.56564  -0.97807 
 H                    -0.62538   1.86202  -3.04105 
 H                    -2.90469   2.85467  -2.92173 
 H                    -3.79117   3.60773  -0.72274 
 H                    -2.40666   3.39008   1.30822 
 O                     0.5452    1.28347   2.14308 
 H                    -0.43816  -0.29872   0.73012 
 C                     1.67168   0.55509   1.48907 
 O                     1.26326  -0.01396   0.37222 
 O                     2.03851  -0.36361   2.50242 
 H                     1.32874  -1.03137   2.51115 
 C                     2.89678   1.50455   1.39611 
 H                     2.86686   2.20008   2.24442 
 H                     3.77357   0.86839   1.57049 
 C                     0.10461   2.49386   1.59208 
 H                    -0.51839   2.95471   2.36942 
 H                     0.95349   3.17673   1.44128 
 C                    -1.72448  -0.24771   3.69536 
 H                    -0.85527   0.4134    3.63745 
 H                    -2.65485   0.29805   3.52876 
 H                    -1.75885  -0.79965   4.63612 
 C                     3.09955   2.26333   0.0877 
 H                     3.02885   1.55595  -0.7468 
 H                     2.30059   2.99462  -0.08031 
 C                     4.44748   2.9811    0.05253 
 H                     4.59361   3.52394  -0.88663 
 H                     4.52758   3.70195   0.87404 
 H                     5.2741    2.26884   0.16354 
 C                     4.85684  -2.18869  -0.14771 
 H                     5.43361  -2.08457   0.77313 
 H                     5.34412  -2.93705  -0.78219 
 C                     4.69038  -0.86556  -0.89946 
 H                     4.47223  -0.06931  -0.18365 
 H                     5.56796  -0.5802   -1.48342 
 
 ITRead=  0  0  0  0  0  0  0  0  0  0  0  0  0  0  0  0  0  0  0  0
 ITRead=  0  0  0  0  0  0  0  0  0  0  0  0  0  0  0  0  0  0  0  0
 ITRead=  0  0  0  0  0  0  0  0  0  0  0  0  0  0  0  0  0  0  0  0
 ITRead=  0  0  0  0  0  0  0  0  0  0  0  0  0  0  0  0  0
 MicOpt= -1 -1 -1 -1 -1 -1 -1 -1 -1 -1 -1 -1 -1 -1 -1 -1 -1 -1 -1 -1
 MicOpt= -1 -1 -1 -1 -1 -1 -1 -1 -1 -1 -1 -1 -1 -1 -1 -1 -1 -1 -1 -1
 MicOpt= -1 -1 -1 -1 -1 -1 -1 -1 -1 -1 -1 -1 -1 -1 -1 -1 -1 -1 -1 -1
 MicOpt= -1 -1 -1 -1 -1 -1 -1 -1 -1 -1 -1 -1 -1 -1 -1 -1 -1
 NAtoms=     77 NQM=       77 NQMF=       0 NMMI=      0 NMMIF=      0
                NMic=       0 NMicF=      0.
                    Isotopes and Nuclear Properties:
 (Nuclear quadrupole moments (NQMom) in fm**2, nuclear magnetic moments (NMagM)
  in nuclear magnetons)

  Atom         1           2           3           4           5           6           7           8           9          10
 IAtWgt=          12          12          12          12          12          12           1           1           1           1
 AtmWgt=  12.0000000  12.0000000  12.0000000  12.0000000  12.0000000  12.0000000   1.0078250   1.0078250   1.0078250   1.0078250
 NucSpn=           0           0           0           0           0           0           1           1           1           1
 AtZEff=  -0.0000000  -0.0000000  -0.0000000  -0.0000000  -0.0000000  -0.0000000  -0.0000000  -0.0000000  -0.0000000  -0.0000000
 NQMom=    0.0000000   0.0000000   0.0000000   0.0000000   0.0000000   0.0000000   0.0000000   0.0000000   0.0000000   0.0000000
 NMagM=    0.0000000   0.0000000   0.0000000   0.0000000   0.0000000   0.0000000   2.7928460   2.7928460   2.7928460   2.7928460
 AtZNuc=   6.0000000   6.0000000   6.0000000   6.0000000   6.0000000   6.0000000   1.0000000   1.0000000   1.0000000   1.0000000

  Atom        11          12          13          14          15          16          17          18          19          20
 IAtWgt=           1           1           1           1           1           1          14          12          12          12
 AtmWgt=   1.0078250   1.0078250   1.0078250   1.0078250   1.0078250   1.0078250  14.0030740  12.0000000  12.0000000  12.0000000
 NucSpn=           1           1           1           1           1           1           2           0           0           0
 AtZEff=  -0.0000000  -0.0000000  -0.0000000  -0.0000000  -0.0000000  -0.0000000  -0.0000000  -0.0000000  -0.0000000  -0.0000000
 NQMom=    0.0000000   0.0000000   0.0000000   0.0000000   0.0000000   0.0000000   2.0440000   0.0000000   0.0000000   0.0000000
 NMagM=    2.7928460   2.7928460   2.7928460   2.7928460   2.7928460   2.7928460   0.4037610   0.0000000   0.0000000   0.0000000
 AtZNuc=   1.0000000   1.0000000   1.0000000   1.0000000   1.0000000   1.0000000   7.0000000   6.0000000   6.0000000   6.0000000

  Atom        21          22          23          24          25          26          27          28          29          30
 IAtWgt=           1          12           1          12           1           1          14          12           1           1
 AtmWgt=   1.0078250  12.0000000   1.0078250  12.0000000   1.0078250   1.0078250  14.0030740  12.0000000   1.0078250   1.0078250
 NucSpn=           1           0           1           0           1           1           2           0           1           1
 AtZEff=  -0.0000000  -0.0000000  -0.0000000  -0.0000000  -0.0000000  -0.0000000  -0.0000000  -0.0000000  -0.0000000  -0.0000000
 NQMom=    0.0000000   0.0000000   0.0000000   0.0000000   0.0000000   0.0000000   2.0440000   0.0000000   0.0000000   0.0000000
 NMagM=    2.7928460   0.0000000   2.7928460   0.0000000   2.7928460   2.7928460   0.4037610   0.0000000   2.7928460   2.7928460
 AtZNuc=   1.0000000   6.0000000   1.0000000   6.0000000   1.0000000   1.0000000   7.0000000   6.0000000   1.0000000   1.0000000

  Atom        31          32          33          34          35          36          37          38          39          40
 IAtWgt=          12           1           1          14          32          16          16          12          12          12
 AtmWgt=  12.0000000   1.0078250   1.0078250  14.0030740  31.9720718  15.9949146  15.9949146  12.0000000  12.0000000  12.0000000
 NucSpn=           0           1           1           2           0           0           0           0           0           0
 AtZEff=  -0.0000000  -0.0000000  -0.0000000  -0.0000000  -0.0000000  -0.0000000  -0.0000000  -0.0000000  -0.0000000  -0.0000000
 NQMom=    0.0000000   0.0000000   0.0000000   2.0440000   0.0000000   0.0000000   0.0000000   0.0000000   0.0000000   0.0000000
 NMagM=    0.0000000   2.7928460   2.7928460   0.4037610   0.0000000   0.0000000   0.0000000   0.0000000   0.0000000   0.0000000
 AtZNuc=   6.0000000   1.0000000   1.0000000   7.0000000  16.0000000   8.0000000   8.0000000   6.0000000   6.0000000   6.0000000

  Atom        41          42          43          44          45          46          47          48          49          50
 IAtWgt=          12          12          12           1           1           1           1           1          16           1
 AtmWgt=  12.0000000  12.0000000  12.0000000   1.0078250   1.0078250   1.0078250   1.0078250   1.0078250  15.9949146   1.0078250
 NucSpn=           0           0           0           1           1           1           1           1           0           1
 AtZEff=  -0.0000000  -0.0000000  -0.0000000  -0.0000000  -0.0000000  -0.0000000  -0.0000000  -0.0000000  -0.0000000  -0.0000000
 NQMom=    0.0000000   0.0000000   0.0000000   0.0000000   0.0000000   0.0000000   0.0000000   0.0000000   0.0000000   0.0000000
 NMagM=    0.0000000   0.0000000   0.0000000   2.7928460   2.7928460   2.7928460   2.7928460   2.7928460   0.0000000   2.7928460
 AtZNuc=   6.0000000   6.0000000   6.0000000   1.0000000   1.0000000   1.0000000   1.0000000   1.0000000   8.0000000   1.0000000

  Atom        51          52          53          54          55          56          57          58          59          60
 IAtWgt=          12          16          16           1          12           1           1          12           1           1
 AtmWgt=  12.0000000  15.9949146  15.9949146   1.0078250  12.0000000   1.0078250   1.0078250  12.0000000   1.0078250   1.0078250
 NucSpn=           0           0           0           1           0           1           1           0           1           1
 AtZEff=  -0.0000000  -0.0000000  -0.0000000  -0.0000000  -0.0000000  -0.0000000  -0.0000000  -0.0000000  -0.0000000  -0.0000000
 NQMom=    0.0000000   0.0000000   0.0000000   0.0000000   0.0000000   0.0000000   0.0000000   0.0000000   0.0000000   0.0000000
 NMagM=    0.0000000   0.0000000   0.0000000   2.7928460   0.0000000   2.7928460   2.7928460   0.0000000   2.7928460   2.7928460
 AtZNuc=   6.0000000   8.0000000   8.0000000   1.0000000   6.0000000   1.0000000   1.0000000   6.0000000   1.0000000   1.0000000

  Atom        61          62          63          64          65          66          67          68          69          70
 IAtWgt=          12           1           1           1          12           1           1          12           1           1
 AtmWgt=  12.0000000   1.0078250   1.0078250   1.0078250  12.0000000   1.0078250   1.0078250  12.0000000   1.0078250   1.0078250
 NucSpn=           0           1           1           1           0           1           1           0           1           1
 AtZEff=  -0.0000000  -0.0000000  -0.0000000  -0.0000000  -0.0000000  -0.0000000  -0.0000000  -0.0000000  -0.0000000  -0.0000000
 NQMom=    0.0000000   0.0000000   0.0000000   0.0000000   0.0000000   0.0000000   0.0000000   0.0000000   0.0000000   0.0000000
 NMagM=    0.0000000   2.7928460   2.7928460   2.7928460   0.0000000   2.7928460   2.7928460   0.0000000   2.7928460   2.7928460
 AtZNuc=   6.0000000   1.0000000   1.0000000   1.0000000   6.0000000   1.0000000   1.0000000   6.0000000   1.0000000   1.0000000

  Atom        71          72          73          74          75          76          77
 IAtWgt=           1          12           1           1          12           1           1
 AtmWgt=   1.0078250  12.0000000   1.0078250   1.0078250  12.0000000   1.0078250   1.0078250
 NucSpn=           1           0           1           1           0           1           1
 AtZEff=  -0.0000000  -0.0000000  -0.0000000  -0.0000000  -0.0000000  -0.0000000  -0.0000000
 NQMom=    0.0000000   0.0000000   0.0000000   0.0000000   0.0000000   0.0000000   0.0000000
 NMagM=    2.7928460   0.0000000   2.7928460   2.7928460   0.0000000   2.7928460   2.7928460
 AtZNuc=   1.0000000   6.0000000   1.0000000   1.0000000   6.0000000   1.0000000   1.0000000
 Leave Link  101 at Thu Feb  7 16:29:42 2019, MaxMem=   104857600 cpu:               5.8 elap:               0.3
 (Enter /home/xinyan/g16/l103.exe)

 GradGradGradGradGradGradGradGradGradGradGradGradGradGradGradGradGradGrad
 Berny optimization.
 Initialization pass.
 Trust Radius=3.00D-01 FncErr=1.00D-07 GrdErr=1.00D-07 EigMax=2.50D+02 EigMin=1.00D-04
 Number of steps in this run=      2 maximum allowed number of steps=      2.
 GradGradGradGradGradGradGradGradGradGradGradGradGradGradGradGradGradGrad

 Leave Link  103 at Thu Feb  7 16:29:42 2019, MaxMem=   104857600 cpu:               1.6 elap:               0.1
 (Enter /home/xinyan/g16/l202.exe)
 Stoichiometry    C27H41N3O5S
 Framework group  C1[X(C27H41N3O5S)]
 Deg. of freedom   225
 Full point group                 C1      NOp   1
 Largest Abelian subgroup         C1      NOp   1
 Largest concise Abelian subgroup C1      NOp   1
                         Standard orientation:                         
 ---------------------------------------------------------------------
 Center     Atomic      Atomic             Coordinates (Angstroms)
 Number     Number       Type             X           Y           Z
 ---------------------------------------------------------------------
      1          6           0       -4.782274    0.367582   -0.604670
      2          6           0       -4.939938   -0.925121   -1.410875
      3          6           0       -3.596758   -1.363611   -2.007282
      4          6           0       -2.599320   -1.558488   -0.871341
      5          6           0       -2.394764   -0.238786   -0.082312
      6          6           0       -3.734509    0.221803    0.503409
      7          1           0       -3.698987   -2.288128   -2.585654
      8          1           0       -5.322769   -1.722101   -0.759976
      9          1           0       -5.671496   -0.788523   -2.213460
     10          1           0       -4.476877    1.176123   -1.281517
     11          1           0       -5.744145    0.658190   -0.169739
     12          1           0       -2.979765   -2.319582   -0.183085
     13          1           0       -2.075825    0.519754   -0.808729
     14          1           0       -4.078094   -0.502537    1.249443
     15          1           0       -3.574876    1.181426    1.006374
     16          1           0       -3.249545   -0.575881   -2.689537
     17          7           0       -1.264696   -2.029039   -1.296640
     18          6           0       -0.579467   -1.359812   -2.261038
     19          6           0       -0.566355   -2.795542   -0.416189
     20          6           0        0.778015   -1.398577   -2.347042
     21          1           0       -1.174349   -0.763407   -2.941717
     22          6           0        0.792077   -2.861702   -0.421376
     23          1           0       -1.157677   -3.296936    0.342335
     24          6           0        1.531056   -2.057556   -1.329615
     25          1           0        1.267114   -0.843628   -3.135938
     26          1           0        1.278417   -3.429547    0.359054
     27          7           0        2.850411   -1.931623   -1.236815
     28          6           0        3.573401   -2.328969   -0.018270
     29          1           0        3.471144   -3.403237    0.158181
     30          1           0        3.156992   -1.760406    0.826708
     31          6           0        3.574150   -0.885756   -1.970476
     32          1           0        3.828084   -1.240858   -2.976779
     33          1           0        2.938500    0.001219   -2.041147
     34          7           0       -1.290310   -0.316696    0.860520
     35         16           0       -1.359784   -1.158681    2.253255
     36          8           0       -2.548834   -2.016588    2.221524
     37          8           0       -0.063503   -1.805553    2.476328
     38          6           0       -0.635054    2.701449    0.054361
     39          6           0       -0.160809    2.238872   -1.183065
     40          6           0       -0.953084    2.326165   -2.325883
     41          6           0       -2.237139    2.868705   -2.265736
     42          6           0       -2.722496    3.324309   -1.043467
     43          6           0       -1.923254    3.241584    0.097219
     44          1           0        0.809492    1.758206   -1.221331
     45          1           0       -0.558426    1.973829   -3.276475
     46          1           0       -2.848980    2.940692   -3.160785
     47          1           0       -3.720084    3.749866   -0.975626
     48          1           0       -2.309794    3.612497    1.044585
     49          8           0        0.678613    1.570233    1.908795
     50          1           0       -0.300070   -0.067101    0.556726
     51          6           0        1.806969    0.836390    1.264194
     52          8           0        1.393301    0.228052    0.170219
     53          8           0        2.197275   -0.045914    2.300850
     54          1           0        1.496420   -0.722037    2.338428
     55          6           0        3.018443    1.797997    1.127714
     56          1           0        2.989126    2.518908    1.954585
     57          1           0        3.905386    1.178687    1.311171
     58          6           0        0.216023    2.757379    1.326163
     59          1           0       -0.404033    3.234029    2.096296
     60          1           0        1.054151    3.445990    1.144488
     61          6           0       -1.553064    0.058957    3.533970
     62          1           0       -0.693267    0.728941    3.445562
     63          1           0       -2.492311    0.587478    3.361693
     64          1           0       -1.569508   -0.464116    4.491557
     65          6           0        3.196373    2.518600   -0.205655
     66          1           0        3.125398    1.784995   -1.017173
     67          1           0        2.386081    3.234171   -0.386582
     68          6           0        4.534339    3.251986   -0.278719
     69          1           0        4.662663    3.767431   -1.235746
     70          1           0        4.614390    3.998772    0.519292
     71          1           0        5.371390    2.554029   -0.155671
     72          6           0        5.008778   -1.915911   -0.325108
     73          1           0        5.594599   -1.776151    0.585239
     74          1           0        5.498513   -2.677230   -0.942038
     75          6           0        4.816519   -0.618798   -1.115073
     76          1           0        4.596176    0.196305   -0.421499
     77          1           0        5.683589   -0.340463   -1.717820
 ---------------------------------------------------------------------
 Rotational constants (GHZ):           0.1555021           0.1004695           0.0907497
 Leave Link  202 at Thu Feb  7 16:29:42 2019, MaxMem=   104857600 cpu:               2.4 elap:               0.1
 (Enter /home/xinyan/g16/l301.exe)
 Standard basis: 6-31G(d) (6D, 7F)
 Ernie: Thresh=  0.10000D-02 Tol=  0.10000D-05 Strict=F.
 There are   626 symmetry adapted cartesian basis functions of A   symmetry.
 There are   626 symmetry adapted basis functions of A   symmetry.
   626 basis functions,  1196 primitive gaussians,   626 cartesian basis functions
   140 alpha electrons      140 beta electrons
       nuclear repulsion energy      4991.5339505690 Hartrees.
 IExCor= 4336 DFT=T Ex+Corr=M062X ExCW=0 ScaHFX=  0.540000
 ScaDFX=  1.000000  1.000000  1.000000  1.000000 ScalE2=  1.000000  1.000000
 IRadAn=      5 IRanWt=     -1 IRanGd=            0 ICorTp=0 IEmpDi=131
 NAtoms=   77 NActive=   77 NUniq=   77 SFac= 1.00D+00 NAtFMM=   60 NAOKFM=T Big=T
 Integral buffers will be    131072 words long.
 Raffenetti 2 integral format.
 Two-electron integral symmetry is turned on.
 R6Disp:  Grimme-D3 Dispersion energy=       -0.0108349062 Hartrees.
 Nuclear repulsion after empirical dispersion term =     4991.5231156629 Hartrees.
 Leave Link  301 at Thu Feb  7 16:29:43 2019, MaxMem=   104857600 cpu:               3.0 elap:               0.2
 (Enter /home/xinyan/g16/l302.exe)
 NPDir=0 NMtPBC=     1 NCelOv=     1 NCel=       1 NClECP=     1 NCelD=      1
         NCelK=      1 NCelE2=     1 NClLst=     1 CellRange=     0.0.
 One-electron integrals computed using PRISM.
 One-electron integral symmetry used in STVInt
 PrsmSu:  requested number of processors reduced to:  23 ShMem   1 Linda.
 NBasis=   626 RedAO= T EigKep=  4.45D-04  NBF=   626
 NBsUse=   626 1.00D-06 EigRej= -1.00D+00 NBFU=   626
 Precomputing XC quadrature grid using
 IXCGrd= 4 IRadAn=           5 IRanWt=          -1 IRanGd=           0 AccXCQ= 0.00D+00.
 Generated NRdTot=       0 NPtTot=           0 NUsed=           0 NTot=          32
 NSgBfM=   621   621   621   621   621 MxSgAt=    77 MxSgA2=    77.
 Leave Link  302 at Thu Feb  7 16:29:47 2019, MaxMem=   104857600 cpu:              93.3 elap:               4.1
 (Enter /home/xinyan/g16/l303.exe)
 DipDrv:  MaxL=1.
 Leave Link  303 at Thu Feb  7 16:29:47 2019, MaxMem=   104857600 cpu:               6.3 elap:               0.3
 (Enter /home/xinyan/g16/l401.exe)
 ExpMin= 1.17D-01 ExpMax= 2.19D+04 ExpMxC= 3.30D+03 IAcc=3 IRadAn=         5 AccDes= 0.00D+00
 Harris functional with IExCor= 1009 and IRadAn=       5 diagonalized for initial guess.
 HarFok:  IExCor= 1009 AccDes= 0.00D+00 IRadAn=         5 IDoV= 1 UseB2=F ITyADJ=14
 ICtDFT=  3500011 ScaDFX=  1.000000  1.000000  1.000000  1.000000
 FoFCou: FMM=F IPFlag=           0 FMFlag=      100000 FMFlg1=        2001
         NFxFlg=           0 DoJE=T BraDBF=F KetDBF=T FulRan=T
         wScrn=  0.000000 ICntrl=       500 IOpCl=  0 I1Cent=   200000004 NGrid=           0
         NMat0=    1 NMatS0=      1 NMatT0=    0 NMatD0=    1 NMtDS0=    0 NMtDT0=    0
 Petite list used in FoFCou.
 Harris En= -1990.52917226993    
 JPrj=0 DoOrth=F DoCkMO=F.
 Leave Link  401 at Thu Feb  7 16:29:51 2019, MaxMem=   104857600 cpu:              99.0 elap:               4.2
 (Enter /home/xinyan/g16/l502.exe)
 Integral symmetry usage will be decided dynamically.
 Closed shell SCF:
 Using DIIS extrapolation, IDIIS=  1040.
 NGot=   104857600 LenX=   104051656 LenY=   103659154
 Requested convergence on RMS density matrix=1.00D-08 within 128 cycles.
 Requested convergence on MAX density matrix=1.00D-06.
 Requested convergence on             energy=1.00D-06.
 No special actions if energy rises.
 Fock matrices will be formed incrementally for  20 cycles.
 Integral accuracy reduced to 1.0D-05 until final iterations.

 Cycle   1  Pass 0  IDiag  1:
 FoFJK:  IHMeth= 1 ICntrl=       0 DoSepK=F KAlg= 0 I1Cent=           0 FoldK=F
 IRaf= 990000000 NMat=       1 IRICut=       1 DoRegI=T DoRafI=F ISym2E= 0 IDoP0=0 IntGTp=1.
 FoFCou: FMM=T IPFlag=           0 FMFlag=      100000 FMFlg1=        2001
         NFxFlg=           0 DoJE=F BraDBF=F KetDBF=F FulRan=T
         wScrn=  0.000000 ICntrl=         0 IOpCl=  0 I1Cent=           0 NGrid=           0
         NMat0=    1 NMatS0=      1 NMatT0=    0 NMatD0=    1 NMtDS0=    0 NMtDT0=    0
 Symmetry not used in FoFCou.
 FMM levels:  10  Number of levels for PrismC:   9
 E= -1990.30159440791    
 DIIS: error= 2.17D-02 at cycle   1 NSaved=   1.
 NSaved= 1 IEnMin= 1 EnMin= -1990.30159440791     IErMin= 1 ErrMin= 2.17D-02
 ErrMax= 2.17D-02  0.00D+00 EMaxC= 1.00D-01 BMatC= 1.24D+00 BMatP= 1.24D+00
 IDIUse=3 WtCom= 7.83D-01 WtEn= 2.17D-01
 Coeff-Com:  0.100D+01
 Coeff-En:   0.100D+01
 Coeff:      0.100D+01
 Gap=     0.368 Goal=   None    Shift=    0.000
 GapD=    0.368 DampG=1.000 DampE=0.500 DampFc=0.5000 IDamp=-1.
 Damping current iteration by 5.00D-01
 RMSDP=3.43D-03 MaxDP=3.45D-01              OVMax= 1.95D-01

 Cycle   2  Pass 0  IDiag  1:
 RMSU=  1.71D-03    CP:  9.88D-01
 E= -1990.81376718505     Delta-E=       -0.512172777138 Rises=F Damp=T
 DIIS: error= 6.75D-03 at cycle   2 NSaved=   2.
 NSaved= 2 IEnMin= 2 EnMin= -1990.81376718505     IErMin= 2 ErrMin= 6.75D-03
 ErrMax= 6.75D-03  0.00D+00 EMaxC= 1.00D-01 BMatC= 9.26D-02 BMatP= 1.24D+00
 IDIUse=3 WtCom= 9.32D-01 WtEn= 6.75D-02
 Coeff-Com: -0.293D-01 0.103D+01
 Coeff-En:   0.000D+00 0.100D+01
 Coeff:     -0.273D-01 0.103D+01
 Gap=     0.263 Goal=   None    Shift=    0.000
 RMSDP=8.53D-04 MaxDP=7.81D-02 DE=-5.12D-01 OVMax= 1.18D-01

 Cycle   3  Pass 0  IDiag  1:
 RMSU=  8.43D-04    CP:  9.81D-01  9.48D-01
 E= -1991.31810748879     Delta-E=       -0.504340303735 Rises=F Damp=F
 DIIS: error= 6.32D-03 at cycle   3 NSaved=   3.
 NSaved= 3 IEnMin= 3 EnMin= -1991.31810748879     IErMin= 3 ErrMin= 6.32D-03
 ErrMax= 6.32D-03  0.00D+00 EMaxC= 1.00D-01 BMatC= 4.91D-02 BMatP= 9.26D-02
 IDIUse=3 WtCom= 9.37D-01 WtEn= 6.32D-02
 Coeff-Com: -0.715D-01 0.440D+00 0.632D+00
 Coeff-En:   0.000D+00 0.000D+00 0.100D+01
 Coeff:     -0.669D-01 0.412D+00 0.655D+00
 Gap=     0.250 Goal=   None    Shift=    0.000
 RMSDP=5.08D-04 MaxDP=3.80D-02 DE=-5.04D-01 OVMax= 5.92D-02

 Cycle   4  Pass 0  IDiag  1:
 RMSU=  3.37D-04    CP:  9.84D-01  1.05D+00  6.05D-01
 E= -1991.34831895584     Delta-E=       -0.030211467054 Rises=F Damp=F
 DIIS: error= 3.92D-03 at cycle   4 NSaved=   4.
 NSaved= 4 IEnMin= 4 EnMin= -1991.34831895584     IErMin= 4 ErrMin= 3.92D-03
 ErrMax= 3.92D-03  0.00D+00 EMaxC= 1.00D-01 BMatC= 1.18D-02 BMatP= 4.91D-02
 IDIUse=3 WtCom= 9.61D-01 WtEn= 3.92D-02
 Coeff-Com: -0.287D-01 0.920D-01 0.358D+00 0.579D+00
 Coeff-En:   0.000D+00 0.000D+00 0.204D+00 0.796D+00
 Coeff:     -0.276D-01 0.884D-01 0.352D+00 0.588D+00
 Gap=     0.230 Goal=   None    Shift=    0.000
 RMSDP=2.04D-04 MaxDP=1.47D-02 DE=-3.02D-02 OVMax= 2.77D-02

 Cycle   5  Pass 0  IDiag  1:
 RMSU=  8.59D-05    CP:  9.83D-01  1.04D+00  7.33D-01  5.62D-01
 E= -1991.35816257494     Delta-E=       -0.009843619099 Rises=F Damp=F
 DIIS: error= 1.01D-03 at cycle   5 NSaved=   5.
 NSaved= 5 IEnMin= 5 EnMin= -1991.35816257494     IErMin= 5 ErrMin= 1.01D-03
 ErrMax= 1.01D-03  0.00D+00 EMaxC= 1.00D-01 BMatC= 5.78D-04 BMatP= 1.18D-02
 IDIUse=3 WtCom= 9.90D-01 WtEn= 1.01D-02
 Coeff-Com: -0.940D-02 0.215D-01 0.133D+00 0.285D+00 0.570D+00
 Coeff-En:   0.000D+00 0.000D+00 0.000D+00 0.000D+00 0.100D+01
 Coeff:     -0.930D-02 0.213D-01 0.132D+00 0.282D+00 0.574D+00
 Gap=     0.230 Goal=   None    Shift=    0.000
 RMSDP=5.06D-05 MaxDP=3.67D-03 DE=-9.84D-03 OVMax= 8.69D-03

 Cycle   6  Pass 0  IDiag  1:
 RMSU=  2.71D-05    CP:  9.83D-01  1.04D+00  7.32D-01  6.35D-01  5.95D-01
 E= -1991.35866485559     Delta-E=       -0.000502280647 Rises=F Damp=F
 DIIS: error= 3.29D-04 at cycle   6 NSaved=   6.
 NSaved= 6 IEnMin= 6 EnMin= -1991.35866485559     IErMin= 6 ErrMin= 3.29D-04
 ErrMax= 3.29D-04  0.00D+00 EMaxC= 1.00D-01 BMatC= 5.71D-05 BMatP= 5.78D-04
 IDIUse=3 WtCom= 9.97D-01 WtEn= 3.29D-03
 Coeff-Com: -0.185D-02 0.198D-02 0.300D-01 0.828D-01 0.293D+00 0.594D+00
 Coeff-En:   0.000D+00 0.000D+00 0.000D+00 0.000D+00 0.000D+00 0.100D+01
 Coeff:     -0.184D-02 0.197D-02 0.300D-01 0.825D-01 0.292D+00 0.595D+00
 Gap=     0.231 Goal=   None    Shift=    0.000
 RMSDP=1.49D-05 MaxDP=8.92D-04 DE=-5.02D-04 OVMax= 2.36D-03

 Cycle   7  Pass 0  IDiag  1:
 RMSU=  9.37D-06    CP:  9.83D-01  1.04D+00  7.34D-01  6.35D-01  6.78D-01
                    CP:  6.77D-01
 E= -1991.35871867411     Delta-E=       -0.000053818527 Rises=F Damp=F
 DIIS: error= 5.47D-05 at cycle   7 NSaved=   7.
 NSaved= 7 IEnMin= 7 EnMin= -1991.35871867411     IErMin= 7 ErrMin= 5.47D-05
 ErrMax= 5.47D-05  0.00D+00 EMaxC= 1.00D-01 BMatC= 3.91D-06 BMatP= 5.71D-05
 IDIUse=1 WtCom= 1.00D+00 WtEn= 0.00D+00
 Coeff-Com:  0.165D-03-0.132D-02-0.128D-02 0.615D-02 0.718D-01 0.257D+00
 Coeff-Com:  0.667D+00
 Coeff:      0.165D-03-0.132D-02-0.128D-02 0.615D-02 0.718D-01 0.257D+00
 Coeff:      0.667D+00
 Gap=     0.231 Goal=   None    Shift=    0.000
 RMSDP=4.46D-06 MaxDP=2.43D-04 DE=-5.38D-05 OVMax= 5.15D-04

 Initial convergence to 1.0D-05 achieved.  Increase integral accuracy.
 Cycle   8  Pass 1  IDiag  1:
 E= -1991.35886173286     Delta-E=       -0.000143058746 Rises=F Damp=F
 DIIS: error= 2.31D-04 at cycle   1 NSaved=   1.
 NSaved= 1 IEnMin= 1 EnMin= -1991.35886173286     IErMin= 1 ErrMin= 2.31D-04
 ErrMax= 2.31D-04  0.00D+00 EMaxC= 1.00D-01 BMatC= 1.37D-05 BMatP= 1.37D-05
 IDIUse=3 WtCom= 9.98D-01 WtEn= 2.31D-03
 Coeff-Com:  0.100D+01
 Coeff-En:   0.100D+01
 Coeff:      0.100D+01
 Gap=     0.231 Goal=   None    Shift=    0.000
 RMSDP=4.46D-06 MaxDP=2.43D-04 DE=-1.43D-04 OVMax= 4.37D-04

 Cycle   9  Pass 1  IDiag  1:
 RMSU=  7.48D-05    CP:  1.00D+00
 E= -1991.35887407843     Delta-E=       -0.000012345574 Rises=F Damp=F
 DIIS: error= 2.19D-05 at cycle   2 NSaved=   2.
 NSaved= 2 IEnMin= 2 EnMin= -1991.35887407843     IErMin= 2 ErrMin= 2.19D-05
 ErrMax= 2.19D-05  0.00D+00 EMaxC= 1.00D-01 BMatC= 7.86D-07 BMatP= 1.37D-05
 IDIUse=1 WtCom= 1.00D+00 WtEn= 0.00D+00
 Coeff-Com:  0.658D-01 0.934D+00
 Coeff:      0.658D-01 0.934D+00
 Gap=     0.231 Goal=   None    Shift=    0.000
 RMSDP=3.88D-06 MaxDP=2.06D-04 DE=-1.23D-05 OVMax= 3.57D-04

 Cycle  10  Pass 1  IDiag  1:
 RMSU=  3.24D-06    CP:  1.00D+00  1.03D+00
 E= -1991.35887370999     Delta-E=        0.000000368439 Rises=F Damp=F
 DIIS: error= 3.59D-05 at cycle   3 NSaved=   3.
 NSaved= 3 IEnMin= 2 EnMin= -1991.35887407843     IErMin= 2 ErrMin= 2.19D-05
 ErrMax= 3.59D-05  0.00D+00 EMaxC= 1.00D-01 BMatC= 1.26D-06 BMatP= 7.86D-07
 IDIUse=1 WtCom= 1.00D+00 WtEn= 0.00D+00
 Coeff-Com: -0.149D-01 0.565D+00 0.450D+00
 Coeff:     -0.149D-01 0.565D+00 0.450D+00
 Gap=     0.231 Goal=   None    Shift=    0.000
 RMSDP=1.84D-06 MaxDP=1.23D-04 DE= 3.68D-07 OVMax= 2.19D-04

 Cycle  11  Pass 1  IDiag  1:
 RMSU=  6.33D-07    CP:  1.00D+00  1.03D+00  4.77D-01
 E= -1991.35887476301     Delta-E=       -0.000001053014 Rises=F Damp=F
 DIIS: error= 3.86D-06 at cycle   4 NSaved=   4.
 NSaved= 4 IEnMin= 4 EnMin= -1991.35887476301     IErMin= 4 ErrMin= 3.86D-06
 ErrMax= 3.86D-06  0.00D+00 EMaxC= 1.00D-01 BMatC= 1.05D-08 BMatP= 7.86D-07
 IDIUse=1 WtCom= 1.00D+00 WtEn= 0.00D+00
 Coeff-Com: -0.803D-02 0.252D+00 0.211D+00 0.546D+00
 Coeff:     -0.803D-02 0.252D+00 0.211D+00 0.546D+00
 Gap=     0.231 Goal=   None    Shift=    0.000
 RMSDP=2.15D-07 MaxDP=1.08D-05 DE=-1.05D-06 OVMax= 3.53D-05

 Cycle  12  Pass 1  IDiag  1:
 RMSU=  1.92D-07    CP:  1.00D+00  1.03D+00  4.95D-01  8.80D-01
 E= -1991.35887477278     Delta-E=       -0.000000009775 Rises=F Damp=F
 DIIS: error= 1.58D-06 at cycle   5 NSaved=   5.
 NSaved= 5 IEnMin= 5 EnMin= -1991.35887477278     IErMin= 5 ErrMin= 1.58D-06
 ErrMax= 1.58D-06  0.00D+00 EMaxC= 1.00D-01 BMatC= 1.03D-09 BMatP= 1.05D-08
 IDIUse=1 WtCom= 1.00D+00 WtEn= 0.00D+00
 Coeff-Com: -0.766D-03 0.903D-02 0.911D-02 0.222D+00 0.761D+00
 Coeff:     -0.766D-03 0.903D-02 0.911D-02 0.222D+00 0.761D+00
 Gap=     0.231 Goal=   None    Shift=    0.000
 RMSDP=8.90D-08 MaxDP=5.09D-06 DE=-9.78D-09 OVMax= 8.52D-06

 Cycle  13  Pass 1  IDiag  1:
 RMSU=  6.70D-08    CP:  1.00D+00  1.03D+00  4.96D-01  9.57D-01  8.50D-01
 E= -1991.35887477380     Delta-E=       -0.000000001016 Rises=F Damp=F
 DIIS: error= 5.14D-07 at cycle   6 NSaved=   6.
 NSaved= 6 IEnMin= 6 EnMin= -1991.35887477380     IErMin= 6 ErrMin= 5.14D-07
 ErrMax= 5.14D-07  0.00D+00 EMaxC= 1.00D-01 BMatC= 2.62D-10 BMatP= 1.03D-09
 IDIUse=1 WtCom= 1.00D+00 WtEn= 0.00D+00
 Coeff-Com:  0.818D-03-0.338D-01-0.281D-01 0.459D-01 0.421D+00 0.594D+00
 Coeff:      0.818D-03-0.338D-01-0.281D-01 0.459D-01 0.421D+00 0.594D+00
 Gap=     0.231 Goal=   None    Shift=    0.000
 RMSDP=3.61D-08 MaxDP=1.80D-06 DE=-1.02D-09 OVMax= 5.79D-06

 Cycle  14  Pass 1  IDiag  1:
 RMSU=  2.57D-08    CP:  1.00D+00  1.03D+00  4.96D-01  9.77D-01  9.34D-01
                    CP:  7.87D-01
 E= -1991.35887477411     Delta-E=       -0.000000000314 Rises=F Damp=F
 DIIS: error= 1.61D-07 at cycle   7 NSaved=   7.
 NSaved= 7 IEnMin= 7 EnMin= -1991.35887477411     IErMin= 7 ErrMin= 1.61D-07
 ErrMax= 1.61D-07  0.00D+00 EMaxC= 1.00D-01 BMatC= 1.66D-11 BMatP= 2.62D-10
 IDIUse=1 WtCom= 1.00D+00 WtEn= 0.00D+00
 Coeff-Com:  0.409D-03-0.149D-01-0.128D-01 0.185D-02 0.105D+00 0.251D+00
 Coeff-Com:  0.670D+00
 Coeff:      0.409D-03-0.149D-01-0.128D-01 0.185D-02 0.105D+00 0.251D+00
 Coeff:      0.670D+00
 Gap=     0.231 Goal=   None    Shift=    0.000
 RMSDP=9.64D-09 MaxDP=4.70D-07 DE=-3.14D-10 OVMax= 1.23D-06

 SCF Done:  E(RM062X) =  -1991.35887477     A.U. after   14 cycles
            NFock= 14  Conv=0.96D-08     -V/T= 2.0076
 KE= 1.976423340872D+03 PE=-1.463541244401D+04 EE= 5.676107112698D+03
 Leave Link  502 at Thu Feb  7 16:32:19 2019, MaxMem=   104857600 cpu:            3553.8 elap:             148.4
 (Enter /home/xinyan/g16/l601.exe)
 Copying SCF densities to generalized density rwf, IOpCl= 0 IROHF=0.

 **********************************************************************

            Population analysis using the SCF density.

 **********************************************************************

 Orbital symmetries:
       Occupied  (A) (A) (A) (A) (A) (A) (A) (A) (A) (A) (A) (A)
                 (A) (A) (A) (A) (A) (A) (A) (A) (A) (A) (A) (A)
                 (A) (A) (A) (A) (A) (A) (A) (A) (A) (A) (A) (A)
                 (A) (A) (A) (A) (A) (A) (A) (A) (A) (A) (A) (A)
                 (A) (A) (A) (A) (A) (A) (A) (A) (A) (A) (A) (A)
                 (A) (A) (A) (A) (A) (A) (A) (A) (A) (A) (A) (A)
                 (A) (A) (A) (A) (A) (A) (A) (A) (A) (A) (A) (A)
                 (A) (A) (A) (A) (A) (A) (A) (A) (A) (A) (A) (A)
                 (A) (A) (A) (A) (A) (A) (A) (A) (A) (A) (A) (A)
                 (A) (A) (A) (A) (A) (A) (A) (A) (A) (A) (A) (A)
                 (A) (A) (A) (A) (A) (A) (A) (A) (A) (A) (A) (A)
                 (A) (A) (A) (A) (A) (A) (A) (A)
       Virtual   (A) (A) (A) (A) (A) (A) (A) (A) (A) (A) (A) (A)
                 (A) (A) (A) (A) (A) (A) (A) (A) (A) (A) (A) (A)
                 (A) (A) (A) (A) (A) (A) (A) (A) (A) (A) (A) (A)
                 (A) (A) (A) (A) (A) (A) (A) (A) (A) (A) (A) (A)
                 (A) (A) (A) (A) (A) (A) (A) (A) (A) (A) (A) (A)
                 (A) (A) (A) (A) (A) (A) (A) (A) (A) (A) (A) (A)
                 (A) (A) (A) (A) (A) (A) (A) (A) (A) (A) (A) (A)
                 (A) (A) (A) (A) (A) (A) (A) (A) (A) (A) (A) (A)
                 (A) (A) (A) (A) (A) (A) (A) (A) (A) (A) (A) (A)
                 (A) (A) (A) (A) (A) (A) (A) (A) (A) (A) (A) (A)
                 (A) (A) (A) (A) (A) (A) (A) (A) (A) (A) (A) (A)
                 (A) (A) (A) (A) (A) (A) (A) (A) (A) (A) (A) (A)
                 (A) (A) (A) (A) (A) (A) (A) (A) (A) (A) (A) (A)
                 (A) (A) (A) (A) (A) (A) (A) (A) (A) (A) (A) (A)
                 (A) (A) (A) (A) (A) (A) (A) (A) (A) (A) (A) (A)
                 (A) (A) (A) (A) (A) (A) (A) (A) (A) (A) (A) (A)
                 (A) (A) (A) (A) (A) (A) (A) (A) (A) (A) (A) (A)
                 (A) (A) (A) (A) (A) (A) (A) (A) (A) (A) (A) (A)
                 (A) (A) (A) (A) (A) (A) (A) (A) (A) (A) (A) (A)
                 (A) (A) (A) (A) (A) (A) (A) (A) (A) (A) (A) (A)
                 (A) (A) (A) (A) (A) (A) (A) (A) (A) (A) (A) (A)
                 (A) (A) (A) (A) (A) (A) (A) (A) (A) (A) (A) (A)
                 (A) (A) (A) (A) (A) (A) (A) (A) (A) (A) (A) (A)
                 (A) (A) (A) (A) (A) (A) (A) (A) (A) (A) (A) (A)
                 (A) (A) (A) (A) (A) (A) (A) (A) (A) (A) (A) (A)
                 (A) (A) (A) (A) (A) (A) (A) (A) (A) (A) (A) (A)
                 (A) (A) (A) (A) (A) (A) (A) (A) (A) (A) (A) (A)
                 (A) (A) (A) (A) (A) (A) (A) (A) (A) (A) (A) (A)
                 (A) (A) (A) (A) (A) (A) (A) (A) (A) (A) (A) (A)
                 (A) (A) (A) (A) (A) (A) (A) (A) (A) (A) (A) (A)
                 (A) (A) (A) (A) (A) (A) (A) (A) (A) (A) (A) (A)
                 (A) (A) (A) (A) (A) (A) (A) (A) (A) (A) (A) (A)
                 (A) (A) (A) (A) (A) (A) (A) (A) (A) (A) (A) (A)
                 (A) (A) (A) (A) (A) (A) (A) (A) (A) (A) (A) (A)
                 (A) (A) (A) (A) (A) (A) (A) (A) (A) (A) (A) (A)
                 (A) (A) (A) (A) (A) (A) (A) (A) (A) (A) (A) (A)
                 (A) (A) (A) (A) (A) (A) (A) (A) (A) (A) (A) (A)
                 (A) (A) (A) (A) (A) (A) (A) (A) (A) (A) (A) (A)
                 (A) (A) (A) (A) (A) (A) (A) (A) (A) (A) (A) (A)
                 (A) (A) (A) (A) (A) (A) (A) (A) (A) (A) (A) (A)
                 (A) (A) (A) (A) (A) (A)
 The electronic state is 1-A.
 Alpha  occ. eigenvalues --  -90.14081 -19.61699 -19.61679 -19.58761 -19.56731
 Alpha  occ. eigenvalues --  -19.51373 -14.85135 -14.80454 -14.75534 -10.63395
 Alpha  occ. eigenvalues --  -10.62768 -10.62317 -10.62102 -10.60672 -10.59245
 Alpha  occ. eigenvalues --  -10.58641 -10.57949 -10.57894 -10.57089 -10.56872
 Alpha  occ. eigenvalues --  -10.56662 -10.55619 -10.55579 -10.55160 -10.54969
 Alpha  occ. eigenvalues --  -10.54793 -10.54732 -10.54676 -10.54524 -10.54353
 Alpha  occ. eigenvalues --  -10.54277 -10.54233 -10.53102 -10.51649 -10.51553
 Alpha  occ. eigenvalues --  -10.49778  -8.45059  -6.37274  -6.37253  -6.37097
 Alpha  occ. eigenvalues --   -1.21910  -1.13648  -1.13485  -1.10163  -1.09352
 Alpha  occ. eigenvalues --   -1.05914  -1.01623  -0.99394  -0.95695  -0.94959
 Alpha  occ. eigenvalues --   -0.93464  -0.90255  -0.88751  -0.85899  -0.85819
 Alpha  occ. eigenvalues --   -0.84802  -0.84663  -0.84299  -0.83032  -0.82626
 Alpha  occ. eigenvalues --   -0.76646  -0.76351  -0.75831  -0.74400  -0.72725
 Alpha  occ. eigenvalues --   -0.71584  -0.68331  -0.68275  -0.67924  -0.67160
 Alpha  occ. eigenvalues --   -0.66759  -0.65202  -0.64866  -0.63520  -0.60580
 Alpha  occ. eigenvalues --   -0.60405  -0.59799  -0.58881  -0.57822  -0.57563
 Alpha  occ. eigenvalues --   -0.57139  -0.56425  -0.55723  -0.55159  -0.54171
 Alpha  occ. eigenvalues --   -0.53477  -0.52638  -0.52403  -0.52368  -0.51891
 Alpha  occ. eigenvalues --   -0.51530  -0.51071  -0.50922  -0.49847  -0.49594
 Alpha  occ. eigenvalues --   -0.49158  -0.48808  -0.48201  -0.48108  -0.48071
 Alpha  occ. eigenvalues --   -0.47631  -0.47434  -0.46897  -0.46468  -0.46094
 Alpha  occ. eigenvalues --   -0.44916  -0.44685  -0.44102  -0.43887  -0.43250
 Alpha  occ. eigenvalues --   -0.42457  -0.42087  -0.41513  -0.41411  -0.41173
 Alpha  occ. eigenvalues --   -0.40880  -0.40451  -0.40014  -0.39845  -0.39448
 Alpha  occ. eigenvalues --   -0.39252  -0.39046  -0.38455  -0.37892  -0.37579
 Alpha  occ. eigenvalues --   -0.37363  -0.36727  -0.36571  -0.35687  -0.34876
 Alpha  occ. eigenvalues --   -0.34356  -0.33898  -0.31724  -0.31001  -0.29734
 Alpha  occ. eigenvalues --   -0.28886  -0.28575  -0.27593  -0.24973  -0.24509
 Alpha virt. eigenvalues --   -0.01451   0.00464   0.03597   0.03807   0.10177
 Alpha virt. eigenvalues --    0.11050   0.11615   0.12117   0.13212   0.13552
 Alpha virt. eigenvalues --    0.14198   0.14671   0.14794   0.15310   0.15598
 Alpha virt. eigenvalues --    0.16056   0.16856   0.16974   0.17233   0.17586
 Alpha virt. eigenvalues --    0.18015   0.18350   0.18543   0.18849   0.18918
 Alpha virt. eigenvalues --    0.19308   0.19648   0.19925   0.20134   0.20329
 Alpha virt. eigenvalues --    0.20636   0.21016   0.21082   0.21646   0.21718
 Alpha virt. eigenvalues --    0.22257   0.22541   0.22904   0.23467   0.23619
 Alpha virt. eigenvalues --    0.23868   0.24203   0.24456   0.24757   0.25096
 Alpha virt. eigenvalues --    0.25261   0.25635   0.26110   0.26437   0.26857
 Alpha virt. eigenvalues --    0.27141   0.27750   0.27873   0.28623   0.29029
 Alpha virt. eigenvalues --    0.29394   0.29746   0.30009   0.30798   0.30901
 Alpha virt. eigenvalues --    0.31411   0.31811   0.32469   0.32851   0.33168
 Alpha virt. eigenvalues --    0.33747   0.34551   0.35162   0.35558   0.35783
 Alpha virt. eigenvalues --    0.36327   0.37230   0.37789   0.38083   0.38881
 Alpha virt. eigenvalues --    0.39811   0.40298   0.40874   0.42861   0.43269
 Alpha virt. eigenvalues --    0.44540   0.44949   0.46880   0.48223   0.48886
 Alpha virt. eigenvalues --    0.49883   0.51272   0.52754   0.53410   0.54958
 Alpha virt. eigenvalues --    0.55186   0.55375   0.56008   0.56525   0.56923
 Alpha virt. eigenvalues --    0.57521   0.58176   0.58531   0.58727   0.59302
 Alpha virt. eigenvalues --    0.59505   0.59994   0.60336   0.60478   0.60559
 Alpha virt. eigenvalues --    0.61262   0.61430   0.62439   0.62679   0.62875
 Alpha virt. eigenvalues --    0.63841   0.64065   0.64723   0.65198   0.65507
 Alpha virt. eigenvalues --    0.66186   0.66838   0.66922   0.67457   0.67848
 Alpha virt. eigenvalues --    0.68477   0.69000   0.69450   0.69914   0.70695
 Alpha virt. eigenvalues --    0.70993   0.71403   0.71695   0.73119   0.73558
 Alpha virt. eigenvalues --    0.73697   0.74092   0.74710   0.74965   0.75660
 Alpha virt. eigenvalues --    0.76776   0.77396   0.77844   0.78604   0.78965
 Alpha virt. eigenvalues --    0.79458   0.79709   0.80237   0.81139   0.81314
 Alpha virt. eigenvalues --    0.81667   0.82135   0.82739   0.83565   0.84392
 Alpha virt. eigenvalues --    0.84971   0.85527   0.85713   0.86335   0.87304
 Alpha virt. eigenvalues --    0.87638   0.88425   0.89016   0.89489   0.89595
 Alpha virt. eigenvalues --    0.89842   0.90207   0.90560   0.90915   0.91241
 Alpha virt. eigenvalues --    0.91762   0.92305   0.92857   0.93055   0.93276
 Alpha virt. eigenvalues --    0.93678   0.94397   0.94838   0.95076   0.95536
 Alpha virt. eigenvalues --    0.95914   0.96129   0.96505   0.96623   0.97133
 Alpha virt. eigenvalues --    0.97299   0.97972   0.98091   0.98397   0.98443
 Alpha virt. eigenvalues --    0.99162   0.99781   0.99867   1.00511   1.00736
 Alpha virt. eigenvalues --    1.01361   1.01918   1.02123   1.02952   1.03049
 Alpha virt. eigenvalues --    1.03122   1.04290   1.04784   1.04927   1.05505
 Alpha virt. eigenvalues --    1.05846   1.07009   1.07810   1.08188   1.08778
 Alpha virt. eigenvalues --    1.10380   1.10646   1.11650   1.11910   1.12091
 Alpha virt. eigenvalues --    1.13269   1.13658   1.14459   1.15188   1.15473
 Alpha virt. eigenvalues --    1.16642   1.17634   1.18090   1.18697   1.18969
 Alpha virt. eigenvalues --    1.19940   1.21142   1.21451   1.21771   1.22102
 Alpha virt. eigenvalues --    1.22878   1.23633   1.24194   1.24392   1.25712
 Alpha virt. eigenvalues --    1.25948   1.28212   1.29230   1.29575   1.30632
 Alpha virt. eigenvalues --    1.31351   1.31710   1.31948   1.32395   1.33585
 Alpha virt. eigenvalues --    1.34346   1.34698   1.35042   1.36183   1.36947
 Alpha virt. eigenvalues --    1.37616   1.38411   1.39380   1.41096   1.41481
 Alpha virt. eigenvalues --    1.41712   1.42165   1.44160   1.44917   1.45943
 Alpha virt. eigenvalues --    1.47393   1.47884   1.48438   1.49190   1.49713
 Alpha virt. eigenvalues --    1.51019   1.52032   1.52495   1.52823   1.54597
 Alpha virt. eigenvalues --    1.54697   1.55089   1.55963   1.57047   1.57236
 Alpha virt. eigenvalues --    1.57493   1.58546   1.60673   1.61074   1.61646
 Alpha virt. eigenvalues --    1.61970   1.62784   1.63901   1.65914   1.67231
 Alpha virt. eigenvalues --    1.69094   1.69676   1.70538   1.72286   1.72928
 Alpha virt. eigenvalues --    1.74392   1.74744   1.75765   1.77225   1.78050
 Alpha virt. eigenvalues --    1.78544   1.79271   1.80449   1.80745   1.81716
 Alpha virt. eigenvalues --    1.84288   1.84630   1.85192   1.85733   1.86003
 Alpha virt. eigenvalues --    1.86332   1.86847   1.87617   1.88076   1.89110
 Alpha virt. eigenvalues --    1.90046   1.90078   1.90554   1.91166   1.91807
 Alpha virt. eigenvalues --    1.92767   1.93929   1.94113   1.94565   1.94678
 Alpha virt. eigenvalues --    1.95464   1.95686   1.96195   1.96987   1.97756
 Alpha virt. eigenvalues --    1.98437   1.99108   1.99164   2.00005   2.00978
 Alpha virt. eigenvalues --    2.01846   2.02343   2.02403   2.02790   2.03913
 Alpha virt. eigenvalues --    2.04325   2.06212   2.06417   2.06928   2.07493
 Alpha virt. eigenvalues --    2.07665   2.08325   2.08769   2.09238   2.09677
 Alpha virt. eigenvalues --    2.09926   2.10620   2.11835   2.11940   2.12804
 Alpha virt. eigenvalues --    2.12912   2.14073   2.14592   2.15182   2.16115
 Alpha virt. eigenvalues --    2.16335   2.16751   2.17364   2.18625   2.19301
 Alpha virt. eigenvalues --    2.20038   2.20467   2.20648   2.21633   2.22343
 Alpha virt. eigenvalues --    2.23145   2.23281   2.23590   2.23719   2.24616
 Alpha virt. eigenvalues --    2.25548   2.26138   2.26543   2.27487   2.28609
 Alpha virt. eigenvalues --    2.28815   2.30261   2.30840   2.31095   2.32133
 Alpha virt. eigenvalues --    2.32452   2.34175   2.34991   2.35240   2.35653
 Alpha virt. eigenvalues --    2.36076   2.37415   2.37839   2.38585   2.38811
 Alpha virt. eigenvalues --    2.39171   2.40285   2.40960   2.41726   2.42802
 Alpha virt. eigenvalues --    2.43298   2.44634   2.45349   2.46039   2.46988
 Alpha virt. eigenvalues --    2.49677   2.50813   2.51777   2.52223   2.53298
 Alpha virt. eigenvalues --    2.54149   2.54705   2.56424   2.57171   2.59979
 Alpha virt. eigenvalues --    2.60908   2.61834   2.62376   2.63023   2.64169
 Alpha virt. eigenvalues --    2.64707   2.64940   2.65862   2.67302   2.68369
 Alpha virt. eigenvalues --    2.68872   2.69692   2.70735   2.71714   2.72775
 Alpha virt. eigenvalues --    2.73762   2.74447   2.76331   2.76802   2.77370
 Alpha virt. eigenvalues --    2.79529   2.80211   2.80745   2.80878   2.81558
 Alpha virt. eigenvalues --    2.83433   2.85502   2.86272   2.87284   2.88402
 Alpha virt. eigenvalues --    2.89166   2.90948   2.92671   2.93884   2.97081
 Alpha virt. eigenvalues --    2.99771   3.00410   3.03121   3.05241   3.10476
 Alpha virt. eigenvalues --    3.14796   3.16403   3.23963   3.41381   3.42924
 Alpha virt. eigenvalues --    3.97083   4.02204   4.05118   4.09535   4.11081
 Alpha virt. eigenvalues --    4.15935   4.17426   4.18156   4.18679   4.19789
 Alpha virt. eigenvalues --    4.21416   4.23416   4.24583   4.26712   4.27418
 Alpha virt. eigenvalues --    4.29913   4.32817   4.33321   4.34831   4.35225
 Alpha virt. eigenvalues --    4.39714   4.40873   4.41878   4.44066   4.48007
 Alpha virt. eigenvalues --    4.50670   4.55926   4.58180   4.59158   4.61932
 Alpha virt. eigenvalues --    4.64064   4.65929   4.73865   4.75446   4.77127
 Alpha virt. eigenvalues --    4.80434
          Condensed to atoms (all electrons):
 Mulliken charges:
               1
     1  C   -0.306112
     2  C   -0.306930
     3  C   -0.309989
     4  C   -0.059398
     5  C    0.057216
     6  C   -0.311878
     7  H    0.173752
     8  H    0.162796
     9  H    0.165191
    10  H    0.150774
    11  H    0.162982
    12  H    0.208511
    13  H    0.172589
    14  H    0.193351
    15  H    0.163419
    16  H    0.153834
    17  N   -0.431717
    18  C    0.069181
    19  C    0.064059
    20  C   -0.204284
    21  H    0.206884
    22  C   -0.208949
    23  H    0.245807
    24  C    0.449046
    25  H    0.191116
    26  H    0.211736
    27  N   -0.528075
    28  C   -0.174261
    29  H    0.169870
    30  H    0.234575
    31  C   -0.154094
    32  H    0.167762
    33  H    0.201429
    34  N   -0.817096
    35  S    1.253929
    36  O   -0.612043
    37  O   -0.608892
    38  C    0.089263
    39  C   -0.179307
    40  C   -0.189065
    41  C   -0.170651
    42  C   -0.163636
    43  C   -0.212185
    44  H    0.204916
    45  H    0.141051
    46  H    0.154675
    47  H    0.158389
    48  H    0.152327
    49  O   -0.548245
    50  H    0.449645
    51  C    0.727367
    52  O   -0.724270
    53  O   -0.718130
    54  H    0.445730
    55  C   -0.337914
    56  H    0.150017
    57  H    0.149397
    58  C   -0.093870
    59  H    0.141170
    60  H    0.146897
    61  C   -0.662808
    62  H    0.271414
    63  H    0.196284
    64  H    0.217353
    65  C   -0.295450
    66  H    0.140885
    67  H    0.146786
    68  C   -0.475094
    69  H    0.149384
    70  H    0.155918
    71  H    0.143743
    72  C   -0.331809
    73  H    0.187559
    74  H    0.163468
    75  C   -0.344003
    76  H    0.195089
    77  H    0.171619
 Sum of Mulliken charges =  -0.00000
 Mulliken charges with hydrogens summed into heavy atoms:
               1
     1  C    0.007644
     2  C    0.021057
     3  C    0.017597
     4  C    0.149113
     5  C    0.229805
     6  C    0.044892
    17  N   -0.431717
    18  C    0.276066
    19  C    0.309866
    20  C   -0.013168
    22  C    0.002787
    24  C    0.449046
    27  N   -0.528075
    28  C    0.230184
    31  C    0.215097
    34  N   -0.367451
    35  S    1.253929
    36  O   -0.612043
    37  O   -0.608892
    38  C    0.089263
    39  C    0.025609
    40  C   -0.048014
    41  C   -0.015976
    42  C   -0.005247
    43  C   -0.059857
    49  O   -0.548245
    51  C    0.727367
    52  O   -0.724270
    53  O   -0.272400
    55  C   -0.038500
    58  C    0.194198
    61  C    0.022244
    65  C   -0.007780
    68  C   -0.026049
    72  C    0.019218
    75  C    0.022704
 Electronic spatial extent (au):  <R**2>=          14338.9464
 Charge=              0.0000 electrons
 Dipole moment (field-independent basis, Debye):
    X=             -2.2262    Y=             -1.8538    Z=             -6.4651  Tot=              7.0845
 Quadrupole moment (field-independent basis, Debye-Ang):
   XX=           -205.0278   YY=           -223.2711   ZZ=           -219.7743
   XY=            -12.1113   XZ=             -5.3331   YZ=             10.0793
 Traceless Quadrupole moment (field-independent basis, Debye-Ang):
   XX=             10.9966   YY=             -7.2468   ZZ=             -3.7499
   XY=            -12.1113   XZ=             -5.3331   YZ=             10.0793
 Octapole moment (field-independent basis, Debye-Ang**2):
  XXX=             18.3614  YYY=            -48.8798  ZZZ=              8.9690  XYY=             11.2178
  XXY=            -22.8820  XXZ=            -37.2264  XZZ=            -24.7114  YZZ=             12.5906
  YYZ=             17.9610  XYZ=            -20.4059
 Hexadecapole moment (field-independent basis, Debye-Ang**3):
 XXXX=          -9908.2663 YYYY=          -5368.9967 ZZZZ=          -3549.5571 XXXY=           -204.0045
 XXXZ=             -9.2076 YYYX=            -56.0549 YYYZ=             57.7631 ZZZX=           -110.2140
 ZZZY=             -4.4098 XXYY=          -2556.9906 XXZZ=          -2323.6643 YYZZ=          -1585.0455
 XXYZ=             49.9259 YYXZ=             53.0362 ZZXY=            -50.1265
 N-N= 4.991523115663D+03 E-N=-1.463541248136D+04  KE= 1.976423340872D+03
 No NMR shielding tensors so no spin-rotation constants.
 Leave Link  601 at Thu Feb  7 16:32:20 2019, MaxMem=   104857600 cpu:              19.7 elap:               0.9
 (Enter /home/xinyan/g16/l701.exe)
 ... and contract with generalized density number  0.
 Compute integral first derivatives.
 R6Disp: Adding Grimme-D3 dispersion energy 1st derivatives to the gradient.
 Leave Link  701 at Thu Feb  7 16:32:21 2019, MaxMem=   104857600 cpu:              20.6 elap:               0.9
 (Enter /home/xinyan/g16/l702.exe)
 L702 exits ... SP integral derivatives will be done elsewhere.
 Leave Link  702 at Thu Feb  7 16:32:21 2019, MaxMem=   104857600 cpu:               1.5 elap:               0.1
 (Enter /home/xinyan/g16/l703.exe)
 Integral derivatives from FoFJK, PRISM(SPDF).
 Compute integral first derivatives, UseDBF=F ICtDFT=           0.
 Calling FoFJK, ICntrl=      2127 FMM=T ISym2X=0 I1Cent= 0 IOpClX= 0 NMat=1 NMatS=1 NMatT=0.
 FoFJK:  IHMeth= 1 ICntrl=    2127 DoSepK=F KAlg= 0 I1Cent=           0 FoldK=F
 IRaf=         0 NMat=       1 IRICut=       1 DoRegI=T DoRafI=F ISym2E= 0 IDoP0=0 IntGTp=1.
 FoFCou: FMM=T IPFlag=           0 FMFlag=      100000 FMFlg1=        2001
         NFxFlg=           0 DoJE=F BraDBF=F KetDBF=F FulRan=T
         wScrn=  0.000000 ICntrl=      2127 IOpCl=  0 I1Cent=           0 NGrid=           0
         NMat0=    1 NMatS0=      1 NMatT0=    0 NMatD0=    1 NMtDS0=    0 NMtDT0=    0
 Symmetry not used in FoFCou.
 FMM levels:  10  Number of levels for PrismC:   9
 Leave Link  703 at Thu Feb  7 16:32:56 2019, MaxMem=   104857600 cpu:             817.3 elap:              34.1
 (Enter /home/xinyan/g16/l716.exe)
 Dipole        =-8.75856392D-01-7.29340562D-01-2.54357830D+00
 ***** Axes restored to original set *****
 -------------------------------------------------------------------
 Center     Atomic                   Forces (Hartrees/Bohr)
 Number     Number              X              Y              Z
 -------------------------------------------------------------------
      1        6          -0.000004435   -0.000036363   -0.000031723
      2        6           0.000035045   -0.000011523    0.000023209
      3        6           0.000003353   -0.000003987   -0.000016001
      4        6           0.000007186    0.000040264    0.000018728
      5        6          -0.000012277    0.000021757   -0.000027231
      6        6          -0.000020889    0.000023901    0.000035511
      7        1           0.000006782   -0.000001842   -0.000012155
      8        1           0.000001161    0.000002835   -0.000024616
      9        1           0.000008475   -0.000005843   -0.000010934
     10        1          -0.000002691    0.000024022   -0.000036019
     11        1          -0.000001484   -0.000006225   -0.000017773
     12        1          -0.000008695   -0.000038652    0.000019444
     13        1          -0.000009459   -0.000003491   -0.000003620
     14        1          -0.000008000   -0.000005942    0.000000738
     15        1          -0.000008748    0.000010313   -0.000006935
     16        1           0.000003451   -0.000009425   -0.000006576
     17        7           0.000013808    0.000019096   -0.000004740
     18        6           0.000008532   -0.000043690   -0.000013137
     19        6           0.000005372    0.000021404   -0.000012865
     20        6          -0.000012822   -0.000016275   -0.000035450
     21        1           0.000009744    0.000014787    0.000002946
     22        6          -0.000008479   -0.000009113    0.000024429
     23        1           0.000002924    0.000009688    0.000018693
     24        6           0.000010532   -0.000002333    0.000014562
     25        1           0.000005084   -0.000004276   -0.000004540
     26        1           0.000014261    0.000019858    0.000020594
     27        7           0.000029957   -0.000023663    0.000043677
     28        6          -0.000010559    0.000026686   -0.000006117
     29        1           0.000006740    0.000025032    0.000007372
     30        1          -0.000001657    0.000017839   -0.000016027
     31        6           0.000005663   -0.000008293   -0.000022458
     32        1           0.000000948   -0.000012923   -0.000007910
     33        1           0.000025237    0.000003863   -0.000029053
     34        7          -0.000034580   -0.000016550   -0.000034083
     35       16          -0.000008430   -0.000037714   -0.000014281
     36        8           0.000023888    0.000026325   -0.000020651
     37        8          -0.000017733    0.000025273   -0.000004784
     38        6          -0.000011003    0.000044030    0.000090454
     39        6           0.000003984   -0.000006242   -0.000052262
     40        6          -0.000018223    0.000011179    0.000025569
     41        6          -0.000013373   -0.000005526   -0.000045917
     42        6          -0.000062000    0.000020733    0.000099669
     43        6          -0.000018433    0.000009475    0.000040645
     44        1           0.000045122    0.000002577   -0.000013409
     45        1           0.000007139    0.000002005   -0.000026937
     46        1          -0.000011120    0.000010440    0.000021922
     47        1           0.000010348   -0.000008902    0.000030548
     48        1          -0.000014200   -0.000001911    0.000035981
     49        8          -0.000015601    0.000058235    0.000083486
     50        1          -0.000019244   -0.000031172    0.000037362
     51        6          -0.000001134    0.000039037   -0.000060047
     52        8           0.000026730    0.000050745   -0.000042826
     53        8           0.000100190   -0.000027991    0.000048766
     54        1          -0.000014893   -0.000007215    0.000002640
     55        6          -0.000171429   -0.000025990   -0.000021704
     56        1           0.000021621    0.000013567    0.000050763
     57        1           0.000037928   -0.000063090   -0.000013319
     58        6           0.000001398   -0.000034913   -0.000053012
     59        1          -0.000006198    0.000015758    0.000064904
     60        1           0.000052671    0.000048162   -0.000021702
     61        6          -0.000027382    0.000028742    0.000033916
     62        1          -0.000034694   -0.000036899   -0.000014840
     63        1           0.000005005   -0.000003248   -0.000005550
     64        1          -0.000010849    0.000020773   -0.000010668
     65        6          -0.000382532   -0.000145973   -0.000150444
     66        1           0.000040199    0.000214995    0.000279600
     67        1           0.000131224   -0.000185582    0.000047236
     68        6           0.000362569    0.000044464    0.000104383
     69        1           0.000091363   -0.000007134    0.000077123
     70        1          -0.000041907   -0.000226299   -0.000304557
     71        1          -0.000153168    0.000120340   -0.000061943
     72        6          -0.000002006    0.000014698   -0.000015867
     73        1           0.000004437    0.000014944   -0.000016497
     74        1           0.000008634    0.000002025    0.000013468
     75        6          -0.000005625   -0.000002085   -0.000023553
     76        1           0.000013818    0.000003835   -0.000025987
     77        1           0.000013432   -0.000005408   -0.000017622
 -------------------------------------------------------------------
 Cartesian Forces:  Max     0.000382532 RMS     0.000062221
 Z-matrix is all fixed cartesians, so copy forces.
 Leave Link  716 at Thu Feb  7 16:32:56 2019, MaxMem=   104857600 cpu:               2.3 elap:               0.1
 (Enter /home/xinyan/g16/l103.exe)

 GradGradGradGradGradGradGradGradGradGradGradGradGradGradGradGradGradGrad
 Berny optimization.
 Search for a local minimum.
 Step number   1 out of a maximum of    2
 All quantities printed in internal units (Hartrees-Bohrs-Radians)
 Second derivative matrix not updated -- first step.
 ITU=  0
     Eigenvalues ---    0.00000   0.00000   0.00000   0.00000   0.00000
     Eigenvalues ---    0.00000   0.00007   0.00013   0.00018   0.00021
     Eigenvalues ---    0.00037   0.00038   0.00084   0.00096   0.00116
     Eigenvalues ---    0.00135   0.00142   0.00203   0.00234   0.00294
     Eigenvalues ---    0.00390   0.00406   0.00449   0.00496   0.00590
     Eigenvalues ---    0.00603   0.00632   0.00689   0.00708   0.00846
     Eigenvalues ---    0.00961   0.01131   0.01165   0.01457   0.01658
     Eigenvalues ---    0.01682   0.01889   0.01952   0.02042   0.02159
     Eigenvalues ---    0.02295   0.02305   0.02444   0.02539   0.02872
     Eigenvalues ---    0.02957   0.03061   0.03097   0.03222   0.03449
     Eigenvalues ---    0.03558   0.03716   0.03914   0.04202   0.04327
     Eigenvalues ---    0.04363   0.04813   0.04843   0.04884   0.04924
     Eigenvalues ---    0.05024   0.05070   0.05100   0.05111   0.05167
     Eigenvalues ---    0.05190   0.05266   0.05373   0.05473   0.05611
     Eigenvalues ---    0.05645   0.05663   0.05701   0.05744   0.05789
     Eigenvalues ---    0.06014   0.06170   0.06254   0.06491   0.06568
     Eigenvalues ---    0.06839   0.06855   0.06973   0.07031   0.07067
     Eigenvalues ---    0.07166   0.07251   0.07273   0.07331   0.07380
     Eigenvalues ---    0.07654   0.07785   0.07859   0.07964   0.08081
     Eigenvalues ---    0.08463   0.08594   0.08781   0.09029   0.09728
     Eigenvalues ---    0.09769   0.10164   0.10462   0.11262   0.11456
     Eigenvalues ---    0.11831   0.12115   0.12600   0.12863   0.12916
     Eigenvalues ---    0.12940   0.13029   0.13350   0.13663   0.13933
     Eigenvalues ---    0.14128   0.14443   0.14638   0.15583   0.15746
     Eigenvalues ---    0.16044   0.16094   0.16890   0.16926   0.17008
     Eigenvalues ---    0.17235   0.17312   0.17743   0.17875   0.19555
     Eigenvalues ---    0.19671   0.20348   0.20621   0.21557   0.21697
     Eigenvalues ---    0.23042   0.23371   0.23764   0.24787   0.26407
     Eigenvalues ---    0.27467   0.28639   0.29604   0.30078   0.30610
     Eigenvalues ---    0.31430   0.32271   0.34036   0.34805   0.36317
     Eigenvalues ---    0.36748   0.39466   0.39950   0.41238   0.43081
     Eigenvalues ---    0.43590   0.44550   0.48144   0.49045   0.50172
     Eigenvalues ---    0.52853   0.56788   0.57646   0.60181   0.64966
     Eigenvalues ---    0.65360   0.66315   0.67417   0.68265   0.68781
     Eigenvalues ---    0.70507   0.77634   0.78188   0.78291   0.81040
     Eigenvalues ---    0.82943   0.83310   0.85424   0.86880   0.87230
     Eigenvalues ---    0.87811   0.88681   0.90575   0.91309   0.93955
     Eigenvalues ---    0.94465   0.94772   0.95066   0.95575   0.96307
     Eigenvalues ---    0.97787   0.97857   0.99561   1.00295   1.00589
     Eigenvalues ---    1.00740   1.03830   1.04265   1.04662   1.06100
     Eigenvalues ---    1.06260   1.06779   1.07065   1.08883   1.09046
     Eigenvalues ---    1.12715   1.15595   1.15861   1.16614   1.19939
     Eigenvalues ---    1.21253   1.24239   1.25954   1.27667   1.37235
     Eigenvalues ---    1.47339   1.53617   1.56394   1.58347   1.58856
     Eigenvalues ---    1.59635   1.67358   1.73076   1.84105   2.33530
 Eigenvalue     1 is   2.22D-16 Eigenvector:
                          Y59       Y48       Y54       Y49       Y53
   1                    0.13558   0.13558   0.13558   0.13558   0.13558
                          Y58       Y56       Y60       Y43       Y51
   1                    0.13558   0.13558   0.13558   0.13558   0.13558
 Eigenvalue     2 is   5.41D-08 Eigenvector:
                          X45       X46       X40       X41       Y73
   1                    0.16987   0.15502   0.14755   0.13931   0.13721
                          Y46       X44       Y77       Y74       X66
   1                   -0.13491   0.13443   0.13342   0.13130   0.13023
 Eigenvalue     3 is   6.40D-08 Eigenvector:
                          Y46       X54       X53       Z47       Y47
   1                    0.21166  -0.20670  -0.18614  -0.18250   0.18004
                          Y41       Z46       Z42       Y42       Z70
   1                    0.16973  -0.16765  -0.15508   0.15208   0.14697
 Eigenvalue     4 is   1.51D-07 Eigenvector:
                          Z77       Z76       Z54       Z57       Z53
   1                    0.18121   0.17904  -0.17308  -0.16953  -0.16920
                          Z71       Z75       Y64       Z33       Z52
   1                   -0.16164   0.15762  -0.15460   0.14782  -0.14701
 Eigenvalue     5 is   2.48D-07 Eigenvector:
                          Z47       Y46       Y9        Y64       Y47
   1                    0.17894   0.17761  -0.16091   0.15885   0.15026
                          Z42       Y7        Y73       Z48       Z46
   1                    0.14395  -0.14185   0.14034   0.13963   0.13888
 Eigenvalue     6 is   4.43D-07 Eigenvector:
                          Y69       Z54       Y48       Y59       Y71
   1                    0.26158  -0.24575  -0.23185  -0.22917   0.21072
                          Y45       Z53       Y68       Z70       Y66
   1                    0.18943  -0.18140   0.18118   0.17935   0.17822
 Eigenvalue     7 is   7.09D-05 Eigenvector:
                          X69       X45       X46       X70       X67
   1                    0.27636  -0.24655  -0.23033   0.21597   0.21321
                          Z70       X68       Z69       X40       X41
   1                    0.21110   0.20751   0.20410  -0.18910  -0.18027
 Quadratic step=1.385D+00 exceeds max=3.000D-01 adjusted using Lamda=-4.049D-04.
 Angle between NR and scaled steps=  10.77 degrees.
 Angle between quadratic step and forces=  79.67 degrees.
 Linear search not attempted -- first point.
 B after Tr=    -0.000973    0.001069    0.001764
         Rot=    1.000000   -0.000147    0.000054   -0.000032 Ang=  -0.02 deg.
 Variable       Old X    -DE/DX   Delta X   Delta X   Delta X     New X
                                 (Linear)    (Quad)   (Total)
    X1       -9.26057  -0.00000   0.00000  -0.00000  -0.00090  -9.26147
    Y1        0.43426  -0.00004   0.00000  -0.00803  -0.00729   0.42697
    Z1       -0.88503  -0.00003   0.00000  -0.03037  -0.02949  -0.91453
    X2       -9.57148   0.00004   0.00000   0.00776   0.00719  -9.56429
    Y2       -1.95662  -0.00001   0.00000  -0.01350  -0.01230  -1.96892
    Z2       -2.48641   0.00002   0.00000  -0.02356  -0.02342  -2.50982
    X3       -7.03084   0.00000   0.00000   0.01211   0.01171  -7.01912
    Y3       -2.78332  -0.00000   0.00000  -0.01423  -0.01254  -2.79587
    Z3       -3.60945  -0.00002   0.00000  -0.01283  -0.01265  -3.62210
    X4       -5.17622   0.00001   0.00000   0.00581   0.00520  -5.17102
    Y4       -3.24181   0.00004   0.00000  -0.00538  -0.00421  -3.24602
    Z4       -1.45386   0.00002   0.00000  -0.00553  -0.00528  -1.45914
    X5       -4.77568  -0.00001   0.00000  -0.00208  -0.00301  -4.77869
    Y5       -0.80009   0.00002   0.00000  -0.00067   0.00006  -0.80003
    Z5        0.11765  -0.00003   0.00000  -0.01092  -0.00991   0.10774
    X6       -7.30906  -0.00002   0.00000  -0.00688  -0.00798  -7.31705
    Y6        0.06888   0.00002   0.00000   0.00059   0.00084   0.06972
    Z6        1.22188   0.00004   0.00000  -0.02245  -0.02146   1.20041
    X7       -7.23327   0.00001   0.00000   0.01765   0.01748  -7.21578
    Y7       -4.49339  -0.00000   0.00000  -0.01795  -0.01594  -4.50933
    Z7       -4.75788  -0.00001   0.00000  -0.00827  -0.00862  -4.76649
    X8      -10.32843   0.00000   0.00000   0.00552   0.00491 -10.32352
    Y8       -3.49015   0.00000   0.00000  -0.01058  -0.00977  -3.49993
    Z8       -1.31172  -0.00002   0.00000  -0.02126  -0.02165  -1.33337
    X9      -10.93256   0.00001   0.00000   0.01239   0.01196 -10.92059
    Y9       -1.63408  -0.00001   0.00000  -0.01972  -0.01816  -1.65225
    Z9       -4.01006  -0.00001   0.00000  -0.02900  -0.02891  -4.03897
   X10       -8.64907  -0.00000   0.00000   0.00237   0.00151  -8.64756
   Y10        1.99304   0.00002   0.00000  -0.01121  -0.01006   1.98298
   Z10       -2.10973  -0.00004   0.00000  -0.03339  -0.03199  -2.14172
   X11      -11.08069  -0.00000   0.00000  -0.00334  -0.00437 -11.08506
   Y11        0.98162  -0.00001   0.00000  -0.00737  -0.00698   0.97464
   Z11       -0.06737  -0.00002   0.00000  -0.03826  -0.03742  -0.10479
   X12       -5.92864  -0.00001   0.00000   0.00364   0.00299  -5.92564
   Y12       -4.70978  -0.00004   0.00000  -0.00244  -0.00169  -4.71147
   Z12       -0.20647   0.00002   0.00000  -0.00316  -0.00343  -0.20990
   X13       -4.13869  -0.00001   0.00000   0.00239   0.00150  -4.13719
   Y13        0.66679  -0.00000   0.00000  -0.00361  -0.00245   0.66434
   Z13       -1.20328  -0.00000   0.00000  -0.01200  -0.01049  -1.21377
   X14       -7.99224  -0.00001   0.00000  -0.01030  -0.01147  -8.00370
   Y14       -1.33394  -0.00001   0.00000   0.00420   0.00400  -1.32994
   Z14        2.58133   0.00000   0.00000  -0.02039  -0.01989   2.56144
   X15       -6.99565  -0.00001   0.00000  -0.01213  -0.01346  -7.00911
   Y15        1.84821   0.00001   0.00000   0.00408   0.00405   1.85226
   Z15        2.23116  -0.00001   0.00000  -0.02691  -0.02537   2.20579
   X16       -6.34071   0.00000   0.00000   0.01434   0.01398  -6.32673
   Y16       -1.26457  -0.00001   0.00000  -0.01730  -0.01520  -1.27977
   Z16       -4.84467  -0.00001   0.00000  -0.01534  -0.01464  -4.85931
   X17       -2.65633   0.00001   0.00000   0.00888   0.00842  -2.64791
   Y17       -4.13876   0.00002   0.00000  -0.00603  -0.00447  -4.14323
   Z17       -2.25578  -0.00000   0.00000   0.00432   0.00458  -2.25121
   X18       -1.32409   0.00001   0.00000   0.00748   0.00712  -1.31697
   Y18       -2.83580  -0.00004   0.00000  -0.01927  -0.01710  -2.85290
   Z18       -4.02351  -0.00001   0.00000  -0.00653  -0.00575  -4.02926
   X19       -1.37485   0.00001   0.00000   0.01082   0.01028  -1.36457
   Y19       -5.65468   0.00002   0.00000   0.01013   0.01129  -5.64340
   Z19       -0.62248  -0.00001   0.00000   0.01780   0.01776  -0.60472
   X20        1.24178  -0.00001   0.00000   0.00750   0.00717   1.24894
   Y20       -2.93748  -0.00002   0.00000  -0.01857  -0.01619  -2.95368
   Z20       -4.15897  -0.00004   0.00000  -0.00673  -0.00570  -4.16466
   X21       -2.41862   0.00001   0.00000   0.00625   0.00596  -2.41266
   Y21       -1.65527   0.00001   0.00000  -0.03074  -0.02826  -1.68353
   Z21       -5.28719   0.00000   0.00000  -0.01621  -0.01520  -5.30239
   X22        1.19036  -0.00001   0.00000   0.01108   0.01054   1.20090
   Y22       -5.81282  -0.00001   0.00000   0.01354   0.01486  -5.79796
   Z22       -0.60687   0.00002   0.00000   0.01940   0.01959  -0.58728
   X23       -2.52105   0.00000   0.00000   0.01200   0.01136  -2.50968
   Y23       -6.63105   0.00001   0.00000   0.02093   0.02160  -6.60944
   Z23        0.76821   0.00002   0.00000   0.02638   0.02593   0.79414
   X24        2.62613   0.00001   0.00000   0.00940   0.00895   2.63508
   Y24       -4.25961  -0.00000   0.00000  -0.00093   0.00097  -4.25864
   Z24       -2.25951   0.00001   0.00000   0.00421   0.00501  -2.25450
   X25        2.19679   0.00001   0.00000   0.00609   0.00585   2.20263
   Y25       -1.85569  -0.00000   0.00000  -0.03037  -0.02751  -1.88320
   Z25       -5.60610  -0.00000   0.00000  -0.01650  -0.01505  -5.62115
   X26        2.07826   0.00001   0.00000   0.01254   0.01191   2.09018
   Y26       -6.94251   0.00002   0.00000   0.02783   0.02877  -6.91374
   Z26        0.84454   0.00002   0.00000   0.02965   0.02961   0.87415
   X27        5.11993   0.00003   0.00000   0.00969   0.00920   5.12913
   Y27       -4.05966  -0.00002   0.00000   0.00109   0.00309  -4.05657
   Z27       -2.04848   0.00004   0.00000  -0.00042   0.00071  -2.04777
   X28        6.44930  -0.00001   0.00000   0.01212   0.01143   6.46073
   Y28       -4.89857   0.00003   0.00000   0.02484   0.02625  -4.87232
   Z28        0.24542  -0.00001   0.00000   0.00670   0.00774   0.25316
   X29        6.22640   0.00001   0.00000   0.01103   0.01044   6.23685
   Y29       -6.93522   0.00003   0.00000   0.02793   0.02924  -6.90598
   Z29        0.51391   0.00001   0.00000   0.02890   0.02931   0.54322
   X30        5.65731  -0.00000   0.00000   0.01487   0.01393   5.67125
   Y30       -3.86345   0.00002   0.00000   0.04288   0.04376  -3.81969
   Z30        1.86548  -0.00002   0.00000  -0.00351  -0.00225   1.86323
   X31        6.52881   0.00001   0.00000   0.00919   0.00871   6.53753
   Y31       -2.05967  -0.00001   0.00000  -0.01367  -0.01119  -2.07086
   Z31       -3.35765  -0.00002   0.00000  -0.02370  -0.02183  -3.37948
   X32        7.02252   0.00000   0.00000   0.00578   0.00556   7.02808
   Y32       -2.67827  -0.00001   0.00000  -0.03449  -0.03141  -2.70968
   Z32       -5.27347  -0.00001   0.00000  -0.01785  -0.01612  -5.28959
   X33        5.35063   0.00003   0.00000   0.01070   0.01014   5.36076
   Y33       -0.36470   0.00000   0.00000  -0.01356  -0.01112  -0.37582
   Z33       -3.45315  -0.00003   0.00000  -0.04011  -0.03788  -3.49103
   X34       -2.71176  -0.00003   0.00000  -0.00959  -0.01071  -2.72246
   Y34       -1.02911  -0.00002   0.00000   0.00367   0.00400  -1.02510
   Z34        1.91764  -0.00003   0.00000  -0.00189  -0.00072   1.91692
   X35       -2.89425  -0.00001   0.00000  -0.01937  -0.02066  -2.91491
   Y35       -2.69836  -0.00004   0.00000   0.00662   0.00617  -2.69218
   Z35        4.49757  -0.00001   0.00000  -0.00072  -0.00007   4.49750
   X36       -5.16075   0.00002   0.00000  -0.01739  -0.01857  -5.17931
   Y36       -4.28752   0.00003   0.00000   0.00458   0.00404  -4.28348
   Z36        4.36205  -0.00002   0.00000  -0.00900  -0.00907   4.35299
   X37       -0.46548  -0.00002   0.00000  -0.02002  -0.02127  -0.48675
   Y37       -3.96497   0.00003   0.00000   0.00927   0.00886  -3.95611
   Z37        4.90913  -0.00000   0.00000   0.01112   0.01167   4.92080
   X38       -1.38337  -0.00001   0.00000   0.00018  -0.00117  -1.38454
   Y38        4.70177   0.00004   0.00000   0.01465   0.01545   4.71722
   Z38        0.58495   0.00009   0.00000   0.02377   0.02677   0.61172
   X39       -0.47083   0.00000   0.00000  -0.00942  -0.01045  -0.48127
   Y39        3.88815  -0.00001   0.00000   0.02126   0.02281   3.91096
   Z39       -1.76892  -0.00005   0.00000   0.01746   0.02033  -1.74859
   X40       -1.94022  -0.00002   0.00000  -0.02243  -0.02324  -1.96346
   Y40        4.13878   0.00001   0.00000   0.01798   0.02008   4.15886
   Z40       -3.93934   0.00003   0.00000   0.02584   0.02861  -3.91073
   X41       -4.35470  -0.00001   0.00000  -0.02628  -0.02717  -4.38188
   Y41        5.19163  -0.00001   0.00000   0.00764   0.00954   5.20117
   Z41       -3.82180  -0.00005   0.00000   0.04061   0.04342  -3.77838
   X42       -5.28808  -0.00006   0.00000  -0.01692  -0.01811  -5.30619
   Y42        5.99323   0.00002   0.00000   0.00059   0.00175   5.99497
   Z42       -1.49721   0.00010   0.00000   0.04702   0.04997  -1.44725
   X43       -3.80536  -0.00002   0.00000  -0.00383  -0.00525  -3.81061
   Y43        5.75117   0.00001   0.00000   0.00441   0.00502   5.75620
   Z43        0.66961   0.00004   0.00000   0.03853   0.04157   0.71118
   X44        1.35183   0.00005   0.00000  -0.00570  -0.00666   1.34518
   Y44        2.95863   0.00000   0.00000   0.02923   0.03093   2.98956
   Z44       -1.84828  -0.00001   0.00000   0.00595   0.00874  -1.83955
   X45       -1.18180   0.00001   0.00000  -0.02960  -0.03018  -1.21198
   Y45        3.51871   0.00000   0.00000   0.02374   0.02641   3.54512
   Z45       -5.74675  -0.00003   0.00000   0.02071   0.02338  -5.72337
   X46       -5.48907  -0.00001   0.00000  -0.03643  -0.03715  -5.52622
   Y46        5.39454   0.00001   0.00000   0.00522   0.00754   5.40209
   Z46       -5.52127   0.00002   0.00000   0.04709   0.04984  -5.47143
   X47       -7.16427   0.00001   0.00000  -0.01971  -0.02098  -7.18525
   Y47        6.81762  -0.00001   0.00000  -0.00774  -0.00675   6.81088
   Z47       -1.36578   0.00003   0.00000   0.05846   0.06145  -1.30434
   X48       -4.54793  -0.00001   0.00000   0.00315   0.00149  -4.54644
   Y48        6.40632  -0.00000   0.00000  -0.00120  -0.00116   6.40516
   Z48        2.47218   0.00004   0.00000   0.04349   0.04665   2.51882
   X49        1.03028  -0.00002   0.00000   0.01136   0.00979   1.04007
   Y49        2.42541   0.00006   0.00000   0.01865   0.01859   2.44399
   Z49        4.04983   0.00008   0.00000   0.01848   0.02108   4.07092
   X50       -0.82800  -0.00002   0.00000  -0.00749  -0.00858  -0.83658
   Y50       -0.56450  -0.00003   0.00000   0.00360   0.00421  -0.56029
   Z50        1.37973   0.00004   0.00000   0.00572   0.00723   1.38695
   X51        3.15902  -0.00000   0.00000  -0.00354  -0.00489   3.15413
   Y51        1.04897   0.00004   0.00000   0.00394   0.00438   1.05335
   Z51        2.81393  -0.00006   0.00000   0.00894   0.01136   2.82530
   X52        2.38722   0.00003   0.00000  -0.02036  -0.02141   2.36580
   Y52       -0.02638   0.00005   0.00000   0.00883   0.00984  -0.01654
   Z52        0.70339  -0.00004   0.00000   0.01259   0.01460   0.71800
   X53        3.85223   0.00010   0.00000  -0.00477  -0.00621   3.84602
   Y53       -0.68712  -0.00003   0.00000  -0.00007  -0.00015  -0.68728
   Z53        4.72889   0.00005   0.00000   0.00599   0.00797   4.73686
   X54        2.51095  -0.00001   0.00000  -0.01264  -0.01401   2.49695
   Y54       -1.94901  -0.00001   0.00000   0.00835   0.00818  -1.94083
   Z54        4.74539   0.00000   0.00000   0.01297   0.01444   4.75983
   X55        5.47412  -0.00017   0.00000   0.00756   0.00612   5.48024
   Y55        2.84319  -0.00003   0.00000  -0.01257  -0.01192   2.83126
   Z55        2.63827  -0.00002   0.00000  -0.00307   0.00012   2.63839
   X56        5.41758   0.00002   0.00000   0.02522   0.02352   5.44110
   Y56        4.15755   0.00001   0.00000  -0.01037  -0.01020   4.14735
   Z56        4.24134   0.00005   0.00000  -0.00405  -0.00047   4.24086
   X57        7.13101   0.00004   0.00000   0.00025  -0.00115   7.12987
   Y57        1.64102  -0.00006   0.00000  -0.02484  -0.02419   1.61683
   Z57        2.96780  -0.00001   0.00000  -0.01003  -0.00701   2.96078
   X58        0.19768   0.00000   0.00000   0.01375   0.01215   0.20983
   Y58        4.71271  -0.00003   0.00000   0.01798   0.01817   4.73088
   Z58        3.00860  -0.00005   0.00000   0.01498   0.01816   3.02676
   X59       -0.97962  -0.00001   0.00000   0.02475   0.02293  -0.95668
   Y59        5.58359   0.00002   0.00000   0.02646   0.02615   5.60974
   Z59        4.47755   0.00006   0.00000   0.01898   0.02229   4.49985
   X60        1.80183   0.00005   0.00000   0.01631   0.01466   1.81650
   Y60        6.00315   0.00005   0.00000   0.01211   0.01250   6.01565
   Z60        2.72362  -0.00002   0.00000   0.00146   0.00520   2.72882
   X61       -3.25879  -0.00003   0.00000  -0.03197  -0.03367  -3.29247
   Y61       -0.46810   0.00003   0.00000   0.00908   0.00788  -0.46022
   Z61        6.98322   0.00003   0.00000  -0.00474  -0.00347   6.97975
   X62       -1.61623  -0.00003   0.00000  -0.03228  -0.03405  -1.65028
   Y62        0.78121  -0.00004   0.00000   0.00976   0.00870   0.78991
   Z62        6.87378  -0.00001   0.00000   0.00065   0.00247   6.87626
   X63       -5.01694   0.00001   0.00000  -0.03119  -0.03293  -5.04987
   Y63        0.56323  -0.00000   0.00000   0.00759   0.00637   0.56961
   Z63        6.66839  -0.00001   0.00000  -0.01360  -0.01222   6.65617
   X64       -3.32374  -0.00001   0.00000  -0.03886  -0.04069  -3.36444
   Y64       -1.51112   0.00002   0.00000   0.01124   0.00952  -1.50160
   Z64        8.76100  -0.00001   0.00000  -0.00377  -0.00282   8.75818
   X65        5.85730  -0.00038   0.00000   0.00630   0.00504   5.86234
   Y65        4.27707  -0.00015   0.00000  -0.01979  -0.01839   4.25868
   Z65        0.16573  -0.00015   0.00000  -0.00719  -0.00354   0.16219
   X66        5.72370   0.00004   0.00000  -0.01682  -0.01782   5.70587
   Y66        2.94032   0.00021   0.00000  -0.02065  -0.01880   2.92152
   Z66       -1.41125   0.00028   0.00000  -0.00311   0.00013  -1.41112
   X67        4.34749   0.00013   0.00000   0.01814   0.01682   4.36430
   Y67        5.65901  -0.00019   0.00000  -0.00613  -0.00474   5.65427
   Z67       -0.15176   0.00005   0.00000   0.00016   0.00406  -0.14771
   X68        8.40452   0.00036   0.00000   0.02086   0.01952   8.42404
   Y68        5.63346   0.00004   0.00000  -0.04660  -0.04501   5.58845
   Z68        0.09927   0.00010   0.00000  -0.02687  -0.02255   0.07672
   X69        8.68066   0.00009   0.00000   0.02179   0.02058   8.70124
   Y69        6.65928  -0.00001   0.00000  -0.05277  -0.05064   6.60864
   Z69       -1.67549   0.00008   0.00000  -0.03010  -0.02545  -1.70093
   X70        8.55589  -0.00004   0.00000   0.04435   0.04276   8.59864
   Y70        6.99567  -0.00023   0.00000  -0.04536  -0.04421   6.95146
   Z70        1.65170  -0.00030   0.00000  -0.03165  -0.02691   1.62479
   X71        9.96660  -0.00015   0.00000   0.00760   0.00632   9.97293
   Y71        4.28749   0.00012   0.00000  -0.06206  -0.06043   4.22705
   Z71        0.30905  -0.00006   0.00000  -0.03368  -0.02959   0.27946
   X72        9.17810  -0.00000   0.00000   0.01199   0.01131   9.18941
   Y72       -4.13602   0.00001   0.00000   0.01714   0.01888  -4.11714
   Z72       -0.27913  -0.00002   0.00000  -0.00526  -0.00371  -0.28284
   X73       10.26803   0.00000   0.00000   0.01449   0.01361  10.28165
   Y73       -3.93927   0.00001   0.00000   0.03526   0.03655  -3.90271
   Z73        1.46100  -0.00002   0.00000  -0.00891  -0.00718   1.45383
   X74       10.09892   0.00001   0.00000   0.00938   0.00892  10.10785
   Y74       -5.55022   0.00000   0.00000   0.00334   0.00549  -5.54473
   Z74       -1.47812   0.00001   0.00000   0.00903   0.01027  -1.46786
   X75        8.86353  -0.00001   0.00000   0.01224   0.01156   8.87509
   Y75       -1.63567  -0.00000   0.00000   0.00194   0.00408  -1.63159
   Z75       -1.69973  -0.00002   0.00000  -0.03204  -0.02979  -1.72953
   X76        8.45129   0.00001   0.00000   0.01602   0.01510   8.46639
   Y76       -0.13098   0.00000   0.00000   0.01710   0.01883  -0.11215
   Z76       -0.34705  -0.00003   0.00000  -0.04779  -0.04514  -0.39219
   X77       10.52192   0.00001   0.00000   0.01111   0.01052  10.53244
   Y77       -1.09642  -0.00001   0.00000  -0.01184  -0.00926  -1.10568
   Z77       -2.80326  -0.00002   0.00000  -0.04050  -0.03792  -2.84118
         Item               Value     Threshold  Converged?
 Maximum Force            0.000383     0.000450     YES
 RMS     Force            0.000062     0.000300     YES
 Maximum Displacement     0.061445     0.001800     NO 
 RMS     Displacement     0.019675     0.001200     NO 
 Predicted change in Energy=-4.664302D-05
 GradGradGradGradGradGradGradGradGradGradGradGradGradGradGradGradGradGrad

 Leave Link  103 at Thu Feb  7 16:32:57 2019, MaxMem=   104857600 cpu:              28.0 elap:               1.2
 (Enter /home/xinyan/g16/l9999.exe)
 1\1\GINC-TSE4\Force\RM062X\6-31G(d)\C27H41N3O5S1\STEVETSE\07-Feb-2019\
 0\\#p M062X/6-31G* em=gd3 force int=ultrafine\\Title\\0,1\C,-4.90048,0
 .2298,-0.46834\C,-5.06501,-1.0354,-1.31575\C,-3.72056,-1.47287,-1.9100
 4\C,-2.73914,-1.71549,-0.76935\C,-2.52718,-0.42339,0.06226\C,-3.86779,
 0.03645,0.64659\H,-3.82768,-2.3778,-2.51776\H,-5.46557,-1.84691,-0.694
 13\H,-5.78526,-0.86472,-2.12203\H,-4.57689,1.05467,-1.11642\H,-5.86365
 ,0.51945,-0.03565\H,-3.1373,-2.49231,-0.10926\H,-2.1901,0.35285,-0.636
 75\H,-4.22931,-0.70589,1.36598\H,-3.70194,0.97803,1.18068\H,-3.35536,-
 0.66918,-2.56369\N,-1.40567,-2.19014,-1.19371\C,-0.70068,-1.50064,-2.1
 2915\C,-0.72754,-2.99233,-0.3294\C,0.65712,-1.55445,-2.20083\H,-1.2798
 8,-0.87593,-2.79786\C,0.62991,-3.07601,-0.32114\H,-1.33408,-3.509,0.40
 652\C,1.38969,-2.25409,-1.19568\H,1.16249,-0.98199,-2.96662\H,1.09977,
 -3.67382,0.44691\N,2.70935,-2.14828,-1.08401\C,3.41282,-2.59221,0.1298
 7\H,3.29487,-3.66996,0.27195\H,2.99372,-2.04445,0.98717\C,3.4549,-1.08
 993,-1.77679\H,3.71616,-1.41728,-2.7906\H,2.83143,-0.19299,-1.82733\N,
 -1.435,-0.54458,1.01477\S,-1.53157,-1.42791,2.38001\O,-2.73095,-2.2688
 6,2.3083\O,-0.24632,-2.09817,2.5978\C,-0.73205,2.48807,0.30954\C,-0.24
 915,2.05752,-0.93607\C,-1.02672,2.19015,-2.08461\C,-2.30441,2.74729,-2
 .02241\C,-2.79833,3.17148,-0.79229\C,-2.01371,3.04339,0.35434\H,0.7153
 6,1.56564,-0.97807\H,-0.62538,1.86202,-3.04105\H,-2.90469,2.85467,-2.9
 2173\H,-3.79117,3.60773,-0.72274\H,-2.40666,3.39008,1.30822\O,0.5452,1
 .28347,2.14308\H,-0.43816,-0.29872,0.73012\C,1.67168,0.55509,1.48907\O
 ,1.26326,-0.01396,0.37222\O,2.03851,-0.36361,2.50242\H,1.32874,-1.0313
 7,2.51115\C,2.89678,1.50455,1.39611\H,2.86686,2.20008,2.24442\H,3.7735
 7,0.86839,1.57049\C,0.10461,2.49386,1.59208\H,-0.51839,2.95471,2.36942
 \H,0.95349,3.17673,1.44128\C,-1.72448,-0.24771,3.69536\H,-0.85527,0.41
 34,3.63745\H,-2.65485,0.29805,3.52876\H,-1.75885,-0.79965,4.63612\C,3.
 09955,2.26333,0.0877\H,3.02885,1.55595,-0.7468\H,2.30059,2.99462,-0.08
 031\C,4.44748,2.9811,0.05253\H,4.59361,3.52394,-0.88663\H,4.52758,3.70
 195,0.87404\H,5.2741,2.26884,0.16354\C,4.85684,-2.18869,-0.14771\H,5.4
 3361,-2.08457,0.77313\H,5.34412,-2.93705,-0.78219\C,4.69038,-0.86556,-
 0.89946\H,4.47223,-0.06931,-0.18365\H,5.56796,-0.5802,-1.48342\\Versio
 n=ES64L-G16RevA.03\State=1-A\HF=-1991.3588748\RMSD=9.643e-09\RMSF=6.22
 2e-05\Dipole=-0.8549782,-0.6394946,-2.5746673\Quadrupole=8.0348811,-5.
 610918,-2.4239631,-9.1427535,-4.0243644,7.3508108\PG=C01 [X(C27H41N3O5
 S1)]\\@


 SCIENCE AND PEACE WILL TRIUMPH OVER IGNORANCE AND WAR

                          -- PASTEUR
 Job cpu time:       0 days  1 hours 17 minutes 40.0 seconds.
 Elapsed time:       0 days  0 hours  3 minutes 15.3 seconds.
 File lengths (MBytes):  RWF=    216 Int=      0 D2E=      0 Chk=     25 Scr=      1
 Normal termination of Gaussian 16 at Thu Feb  7 16:32:57 2019.
