 Entering Gaussian System, Link 0=g16
 Input=C27N3H41SO5-315.gjf
 Output=C27N3H41SO5-315.log
 Initial command:
 /home/xinyan/g16/l1.exe "/local/home/tmp/Gau-27652.inp" -scrdir="/local/home/tmp/"
 Entering Link 1 = /home/xinyan/g16/l1.exe PID=     27653.
  
 Copyright (c) 1988,1990,1992,1993,1995,1998,2003,2009,2016,
            Gaussian, Inc.  All Rights Reserved.
  
 This is part of the Gaussian(R) 16 program.  It is based on
 the Gaussian(R) 09 system (copyright 2009, Gaussian, Inc.),
 the Gaussian(R) 03 system (copyright 2003, Gaussian, Inc.),
 the Gaussian(R) 98 system (copyright 1998, Gaussian, Inc.),
 the Gaussian(R) 94 system (copyright 1995, Gaussian, Inc.),
 the Gaussian 92(TM) system (copyright 1992, Gaussian, Inc.),
 the Gaussian 90(TM) system (copyright 1990, Gaussian, Inc.),
 the Gaussian 88(TM) system (copyright 1988, Gaussian, Inc.),
 the Gaussian 86(TM) system (copyright 1986, Carnegie Mellon
 University), and the Gaussian 82(TM) system (copyright 1983,
 Carnegie Mellon University). Gaussian is a federally registered
 trademark of Gaussian, Inc.
  
 This software contains proprietary and confidential information,
 including trade secrets, belonging to Gaussian, Inc.
  
 This software is provided under written license and may be
 used, copied, transmitted, or stored only in accord with that
 written license.
  
 The following legend is applicable only to US Government
 contracts under FAR:
  
                    RESTRICTED RIGHTS LEGEND
  
 Use, reproduction and disclosure by the US Government is
 subject to restrictions as set forth in subparagraphs (a)
 and (c) of the Commercial Computer Software - Restricted
 Rights clause in FAR 52.227-19.
  
 Gaussian, Inc.
 340 Quinnipiac St., Bldg. 40, Wallingford CT 06492
  
  
 ---------------------------------------------------------------
 Warning -- This program may not be used in any manner that
 competes with the business of Gaussian, Inc. or will provide
 assistance to any competitor of Gaussian, Inc.  The licensee
 of this program is prohibited from giving any competitor of
 Gaussian, Inc. access to this program.  By using this program,
 the user acknowledges that Gaussian, Inc. is engaged in the
 business of creating and licensing software in the field of
 computational chemistry and represents and warrants to the
 licensee that it is not a competitor of Gaussian, Inc. and that
 it will not use this program in any manner prohibited above.
 ---------------------------------------------------------------
  

 Cite this work as:
 Gaussian 16, Revision A.03,
 M. J. Frisch, G. W. Trucks, H. B. Schlegel, G. E. Scuseria, 
 M. A. Robb, J. R. Cheeseman, G. Scalmani, V. Barone, 
 G. A. Petersson, H. Nakatsuji, X. Li, M. Caricato, A. V. Marenich, 
 J. Bloino, B. G. Janesko, R. Gomperts, B. Mennucci, H. P. Hratchian, 
 J. V. Ortiz, A. F. Izmaylov, J. L. Sonnenberg, D. Williams-Young, 
 F. Ding, F. Lipparini, F. Egidi, J. Goings, B. Peng, A. Petrone, 
 T. Henderson, D. Ranasinghe, V. G. Zakrzewski, J. Gao, N. Rega, 
 G. Zheng, W. Liang, M. Hada, M. Ehara, K. Toyota, R. Fukuda, 
 J. Hasegawa, M. Ishida, T. Nakajima, Y. Honda, O. Kitao, H. Nakai, 
 T. Vreven, K. Throssell, J. A. Montgomery, Jr., J. E. Peralta, 
 F. Ogliaro, M. J. Bearpark, J. J. Heyd, E. N. Brothers, K. N. Kudin, 
 V. N. Staroverov, T. A. Keith, R. Kobayashi, J. Normand, 
 K. Raghavachari, A. P. Rendell, J. C. Burant, S. S. Iyengar, 
 J. Tomasi, M. Cossi, J. M. Millam, M. Klene, C. Adamo, R. Cammi, 
 J. W. Ochterski, R. L. Martin, K. Morokuma, O. Farkas, 
 J. B. Foresman, and D. J. Fox, Gaussian, Inc., Wallingford CT, 2016.
 
 ******************************************
 Gaussian 16:  ES64L-G16RevA.03 25-Dec-2016
                 8-Feb-2019 
 ******************************************
 %nproc=24
 Will use up to   24 processors via shared memory.
 ------------------------------------------
 #p M062X/6-31G* em=gd3 force int=ultrafine
 ------------------------------------------
 1/10=7,30=1,38=1/1,3;
 2/12=2,17=6,18=5,40=1/2;
 3/5=1,6=6,7=1,11=2,25=1,30=1,71=1,74=-55,75=-5,124=31/1,2,3;
 4//1;
 5/5=2,38=5/2;
 6/7=2,8=2,9=2,10=2,28=1/1;
 7/29=1/1,2,3,16;
 1/10=7,30=1/3;
 99//99;
 Leave Link    1 at Fri Feb  8 01:59:00 2019, MaxMem=           0 cpu:               2.5 elap:               0.1
 (Enter /home/xinyan/g16/l101.exe)
 -----
 Title
 -----
 Symbolic Z-matrix:
 Charge =  0 Multiplicity = 1
 C                    -4.94054   0.25707  -0.2228 
 C                    -5.08043  -0.99532  -1.09354 
 C                    -3.72975  -1.38957  -1.70303 
 C                    -2.73406  -1.62835  -0.57278 
 C                    -2.53207  -0.34228   0.27646 
 C                    -3.8874    0.06688   0.87285 
 H                    -3.82228  -2.28495  -2.32833 
 H                    -5.45703  -1.82741  -0.48417 
 H                    -5.80961  -0.8286   -1.89313 
 H                    -4.64076   1.1015   -0.85927 
 H                    -5.9085    0.51607   0.21947 
 H                    -3.10621  -2.42409   0.07768 
 H                    -2.25974   0.43919  -0.44801 
 H                    -4.21253  -0.69938   1.58803 
 H                    -3.74053   1.00235   1.42674 
 H                    -3.39018  -0.56369  -2.34347 
 N                    -1.40212  -2.08276  -1.03466 
 C                    -0.74205  -1.41179  -2.00611 
 C                    -0.70733  -2.92602  -0.23517 
 C                     0.603    -1.54599  -2.19797 
 H                    -1.33687  -0.73797  -2.60928 
 C                     0.63969  -3.11002  -0.36403 
 H                    -1.27699  -3.40657   0.55296 
 C                     1.36875  -2.34805  -1.30783 
 H                     1.07501  -0.98755  -2.99557 
 H                     1.13219  -3.75744   0.34791 
 N                     2.70782  -2.36985  -1.34401 
 C                     3.47598  -2.99358  -0.26023 
 H                     3.3192   -4.07633  -0.24747 
 H                     3.14646  -2.57241   0.69999 
 C                     3.48621  -1.32688  -2.02874 
 H                     3.69817  -1.62966  -3.06167 
 H                     2.92618  -0.38814  -2.02696 
 N                    -1.40629  -0.41646   1.18635 
 S                    -1.44909  -1.39968   2.42106 
 O                    -2.52677  -2.41182   2.35473 
 O                    -0.09266  -1.97083   2.6457 
 C                    -1.07684   2.71187   0.01166 
 C                    -0.34539   2.03527  -0.96877 
 C                    -0.82037   1.98155  -2.278 
 C                    -2.0384    2.56895  -2.61802 
 C                    -2.77781   3.22894  -1.63775 
 C                    -2.29405   3.30091  -0.33394 
 H                     0.56705   1.51307  -0.68703 
 H                    -0.23631   1.46997  -3.03984 
 H                    -2.40888   2.51706  -3.63763 
 H                    -3.73203   3.68435  -1.88672 
 H                    -2.87608   3.80866   0.43266 
 O                     0.25526   1.70377   1.77637 
 H                    -0.25617   0.87953   1.52956 
 C                     2.38838   0.20555   1.4272 
 O                     2.07644  -0.20547   0.32186 
 O                     2.0497   -0.39013   2.55699 
 H                     1.32253  -1.05777   2.4112 
 C                     3.25742   1.42066   1.65183 
 H                     2.85441   1.95161   2.51859 
 H                     4.26187   1.06975   1.93044 
 C                    -0.5708    2.78021   1.43933 
 H                    -1.43967   2.85732   2.1173 
 H                     0.02127   3.69467   1.57468 
 C                    -1.74934  -0.39852   3.8749 
 H                    -0.98478   0.38178   3.89118 
 H                    -2.74556   0.03945   3.78722 
 H                    -1.68083  -1.03146   4.76078 
 C                     3.31775   2.32771   0.4301 
 H                     3.67169   1.75395  -0.4351 
 H                     2.29731   2.64683   0.19144 
 C                     4.20898   3.54467   0.6582 
 H                     4.23938   4.18753  -0.22623 
 H                     3.84091   4.14536   1.49652 
 H                     5.23664   3.24525   0.89177 
 C                     4.91749  -2.605    -0.57699 
 H                     5.54793  -2.61528   0.31431 
 H                     5.34306  -3.29999  -1.30839 
 C                     4.76062  -1.21058  -1.18841 
 H                     4.58758  -0.47668  -0.39551 
 H                     5.62281  -0.89499  -1.77941 
 
 ITRead=  0  0  0  0  0  0  0  0  0  0  0  0  0  0  0  0  0  0  0  0
 ITRead=  0  0  0  0  0  0  0  0  0  0  0  0  0  0  0  0  0  0  0  0
 ITRead=  0  0  0  0  0  0  0  0  0  0  0  0  0  0  0  0  0  0  0  0
 ITRead=  0  0  0  0  0  0  0  0  0  0  0  0  0  0  0  0  0
 MicOpt= -1 -1 -1 -1 -1 -1 -1 -1 -1 -1 -1 -1 -1 -1 -1 -1 -1 -1 -1 -1
 MicOpt= -1 -1 -1 -1 -1 -1 -1 -1 -1 -1 -1 -1 -1 -1 -1 -1 -1 -1 -1 -1
 MicOpt= -1 -1 -1 -1 -1 -1 -1 -1 -1 -1 -1 -1 -1 -1 -1 -1 -1 -1 -1 -1
 MicOpt= -1 -1 -1 -1 -1 -1 -1 -1 -1 -1 -1 -1 -1 -1 -1 -1 -1
 NAtoms=     77 NQM=       77 NQMF=       0 NMMI=      0 NMMIF=      0
                NMic=       0 NMicF=      0.
                    Isotopes and Nuclear Properties:
 (Nuclear quadrupole moments (NQMom) in fm**2, nuclear magnetic moments (NMagM)
  in nuclear magnetons)

  Atom         1           2           3           4           5           6           7           8           9          10
 IAtWgt=          12          12          12          12          12          12           1           1           1           1
 AtmWgt=  12.0000000  12.0000000  12.0000000  12.0000000  12.0000000  12.0000000   1.0078250   1.0078250   1.0078250   1.0078250
 NucSpn=           0           0           0           0           0           0           1           1           1           1
 AtZEff=  -0.0000000  -0.0000000  -0.0000000  -0.0000000  -0.0000000  -0.0000000  -0.0000000  -0.0000000  -0.0000000  -0.0000000
 NQMom=    0.0000000   0.0000000   0.0000000   0.0000000   0.0000000   0.0000000   0.0000000   0.0000000   0.0000000   0.0000000
 NMagM=    0.0000000   0.0000000   0.0000000   0.0000000   0.0000000   0.0000000   2.7928460   2.7928460   2.7928460   2.7928460
 AtZNuc=   6.0000000   6.0000000   6.0000000   6.0000000   6.0000000   6.0000000   1.0000000   1.0000000   1.0000000   1.0000000

  Atom        11          12          13          14          15          16          17          18          19          20
 IAtWgt=           1           1           1           1           1           1          14          12          12          12
 AtmWgt=   1.0078250   1.0078250   1.0078250   1.0078250   1.0078250   1.0078250  14.0030740  12.0000000  12.0000000  12.0000000
 NucSpn=           1           1           1           1           1           1           2           0           0           0
 AtZEff=  -0.0000000  -0.0000000  -0.0000000  -0.0000000  -0.0000000  -0.0000000  -0.0000000  -0.0000000  -0.0000000  -0.0000000
 NQMom=    0.0000000   0.0000000   0.0000000   0.0000000   0.0000000   0.0000000   2.0440000   0.0000000   0.0000000   0.0000000
 NMagM=    2.7928460   2.7928460   2.7928460   2.7928460   2.7928460   2.7928460   0.4037610   0.0000000   0.0000000   0.0000000
 AtZNuc=   1.0000000   1.0000000   1.0000000   1.0000000   1.0000000   1.0000000   7.0000000   6.0000000   6.0000000   6.0000000

  Atom        21          22          23          24          25          26          27          28          29          30
 IAtWgt=           1          12           1          12           1           1          14          12           1           1
 AtmWgt=   1.0078250  12.0000000   1.0078250  12.0000000   1.0078250   1.0078250  14.0030740  12.0000000   1.0078250   1.0078250
 NucSpn=           1           0           1           0           1           1           2           0           1           1
 AtZEff=  -0.0000000  -0.0000000  -0.0000000  -0.0000000  -0.0000000  -0.0000000  -0.0000000  -0.0000000  -0.0000000  -0.0000000
 NQMom=    0.0000000   0.0000000   0.0000000   0.0000000   0.0000000   0.0000000   2.0440000   0.0000000   0.0000000   0.0000000
 NMagM=    2.7928460   0.0000000   2.7928460   0.0000000   2.7928460   2.7928460   0.4037610   0.0000000   2.7928460   2.7928460
 AtZNuc=   1.0000000   6.0000000   1.0000000   6.0000000   1.0000000   1.0000000   7.0000000   6.0000000   1.0000000   1.0000000

  Atom        31          32          33          34          35          36          37          38          39          40
 IAtWgt=          12           1           1          14          32          16          16          12          12          12
 AtmWgt=  12.0000000   1.0078250   1.0078250  14.0030740  31.9720718  15.9949146  15.9949146  12.0000000  12.0000000  12.0000000
 NucSpn=           0           1           1           2           0           0           0           0           0           0
 AtZEff=  -0.0000000  -0.0000000  -0.0000000  -0.0000000  -0.0000000  -0.0000000  -0.0000000  -0.0000000  -0.0000000  -0.0000000
 NQMom=    0.0000000   0.0000000   0.0000000   2.0440000   0.0000000   0.0000000   0.0000000   0.0000000   0.0000000   0.0000000
 NMagM=    0.0000000   2.7928460   2.7928460   0.4037610   0.0000000   0.0000000   0.0000000   0.0000000   0.0000000   0.0000000
 AtZNuc=   6.0000000   1.0000000   1.0000000   7.0000000  16.0000000   8.0000000   8.0000000   6.0000000   6.0000000   6.0000000

  Atom        41          42          43          44          45          46          47          48          49          50
 IAtWgt=          12          12          12           1           1           1           1           1          16           1
 AtmWgt=  12.0000000  12.0000000  12.0000000   1.0078250   1.0078250   1.0078250   1.0078250   1.0078250  15.9949146   1.0078250
 NucSpn=           0           0           0           1           1           1           1           1           0           1
 AtZEff=  -0.0000000  -0.0000000  -0.0000000  -0.0000000  -0.0000000  -0.0000000  -0.0000000  -0.0000000  -0.0000000  -0.0000000
 NQMom=    0.0000000   0.0000000   0.0000000   0.0000000   0.0000000   0.0000000   0.0000000   0.0000000   0.0000000   0.0000000
 NMagM=    0.0000000   0.0000000   0.0000000   2.7928460   2.7928460   2.7928460   2.7928460   2.7928460   0.0000000   2.7928460
 AtZNuc=   6.0000000   6.0000000   6.0000000   1.0000000   1.0000000   1.0000000   1.0000000   1.0000000   8.0000000   1.0000000

  Atom        51          52          53          54          55          56          57          58          59          60
 IAtWgt=          12          16          16           1          12           1           1          12           1           1
 AtmWgt=  12.0000000  15.9949146  15.9949146   1.0078250  12.0000000   1.0078250   1.0078250  12.0000000   1.0078250   1.0078250
 NucSpn=           0           0           0           1           0           1           1           0           1           1
 AtZEff=  -0.0000000  -0.0000000  -0.0000000  -0.0000000  -0.0000000  -0.0000000  -0.0000000  -0.0000000  -0.0000000  -0.0000000
 NQMom=    0.0000000   0.0000000   0.0000000   0.0000000   0.0000000   0.0000000   0.0000000   0.0000000   0.0000000   0.0000000
 NMagM=    0.0000000   0.0000000   0.0000000   2.7928460   0.0000000   2.7928460   2.7928460   0.0000000   2.7928460   2.7928460
 AtZNuc=   6.0000000   8.0000000   8.0000000   1.0000000   6.0000000   1.0000000   1.0000000   6.0000000   1.0000000   1.0000000

  Atom        61          62          63          64          65          66          67          68          69          70
 IAtWgt=          12           1           1           1          12           1           1          12           1           1
 AtmWgt=  12.0000000   1.0078250   1.0078250   1.0078250  12.0000000   1.0078250   1.0078250  12.0000000   1.0078250   1.0078250
 NucSpn=           0           1           1           1           0           1           1           0           1           1
 AtZEff=  -0.0000000  -0.0000000  -0.0000000  -0.0000000  -0.0000000  -0.0000000  -0.0000000  -0.0000000  -0.0000000  -0.0000000
 NQMom=    0.0000000   0.0000000   0.0000000   0.0000000   0.0000000   0.0000000   0.0000000   0.0000000   0.0000000   0.0000000
 NMagM=    0.0000000   2.7928460   2.7928460   2.7928460   0.0000000   2.7928460   2.7928460   0.0000000   2.7928460   2.7928460
 AtZNuc=   6.0000000   1.0000000   1.0000000   1.0000000   6.0000000   1.0000000   1.0000000   6.0000000   1.0000000   1.0000000

  Atom        71          72          73          74          75          76          77
 IAtWgt=           1          12           1           1          12           1           1
 AtmWgt=   1.0078250  12.0000000   1.0078250   1.0078250  12.0000000   1.0078250   1.0078250
 NucSpn=           1           0           1           1           0           1           1
 AtZEff=  -0.0000000  -0.0000000  -0.0000000  -0.0000000  -0.0000000  -0.0000000  -0.0000000
 NQMom=    0.0000000   0.0000000   0.0000000   0.0000000   0.0000000   0.0000000   0.0000000
 NMagM=    2.7928460   0.0000000   2.7928460   2.7928460   0.0000000   2.7928460   2.7928460
 AtZNuc=   1.0000000   6.0000000   1.0000000   1.0000000   6.0000000   1.0000000   1.0000000
 Leave Link  101 at Fri Feb  8 01:59:00 2019, MaxMem=   104857600 cpu:               5.2 elap:               0.2
 (Enter /home/xinyan/g16/l103.exe)

 GradGradGradGradGradGradGradGradGradGradGradGradGradGradGradGradGradGrad
 Berny optimization.
 Initialization pass.
 Trust Radius=3.00D-01 FncErr=1.00D-07 GrdErr=1.00D-07 EigMax=2.50D+02 EigMin=1.00D-04
 Number of steps in this run=      2 maximum allowed number of steps=      2.
 GradGradGradGradGradGradGradGradGradGradGradGradGradGradGradGradGradGrad

 Leave Link  103 at Fri Feb  8 01:59:00 2019, MaxMem=   104857600 cpu:               1.6 elap:               0.1
 (Enter /home/xinyan/g16/l202.exe)
 Stoichiometry    C27H41N3O5S
 Framework group  C1[X(C27H41N3O5S)]
 Deg. of freedom   225
 Full point group                 C1      NOp   1
 Largest Abelian subgroup         C1      NOp   1
 Largest concise Abelian subgroup C1      NOp   1
                         Standard orientation:                         
 ---------------------------------------------------------------------
 Center     Atomic      Atomic             Coordinates (Angstroms)
 Number     Number       Type             X           Y           Z
 ---------------------------------------------------------------------
      1          6           0       -4.861232    0.024471   -0.407969
      2          6           0       -4.878279   -1.244337   -1.265917
      3          6           0       -3.492549   -1.517922   -1.862703
      4          6           0       -2.487167   -1.651814   -0.723774
      5          6           0       -2.411254   -0.343937    0.112695
      6          6           0       -3.802899   -0.056072    0.696191
      7          1           0       -3.497267   -2.424374   -2.478810
      8          1           0       -5.180565   -2.101470   -0.649899
      9          1           0       -5.614004   -1.154106   -2.071776
     10          1           0       -4.636381    0.886494   -1.051695
     11          1           0       -5.852169    0.197156    0.025451
     12          1           0       -2.788685   -2.471924   -0.067037
     13          1           0       -2.207271    0.451955   -0.618511
     14          1           0       -4.060795   -0.841810    1.417615
     15          1           0       -3.747277    0.894601    1.240796
     16          1           0       -3.226334   -0.670721   -2.509950
     17          7           0       -1.115586   -1.985524   -1.172425
     18          6           0       -0.513533   -1.266240   -2.146987
     19          6           0       -0.351446   -2.752535   -0.359536
     20          6           0        0.839508   -1.277157   -2.329033
     21          1           0       -1.163853   -0.656656   -2.761112
     22          6           0        1.007716   -2.812208   -0.478034
     23          1           0       -0.879798   -3.275725    0.430215
     24          6           0        1.669835   -1.995643   -1.425508
     25          1           0        1.263488   -0.685564   -3.129704
     26          1           0        1.552933   -3.403877    0.243932
     27          7           0        3.005394   -1.893611   -1.453143
     28          6           0        3.820214   -2.432340   -0.357914
     29          1           0        3.764295   -3.524773   -0.334376
     30          1           0        3.446219   -2.033721    0.595616
     31          6           0        3.688745   -0.790049   -2.144311
     32          1           0        3.935247   -1.082433   -3.172560
     33          1           0        3.044186    0.092715   -2.156193
     34          7           0       -1.290005   -0.304145    1.030301
     35         16           0       -1.250430   -1.274415    2.275320
     36          8           0       -2.229239   -2.382705    2.213296
     37          8           0        0.151417   -1.715061    2.514555
     38          6           0       -1.243262    2.829070   -0.176206
     39          6           0       -0.445273    2.213179   -1.144679
     40          6           0       -0.903823    2.102275   -2.456170
     41          6           0       -2.168544    2.570747   -2.810093
     42          6           0       -2.972920    3.169362   -1.841649
     43          6           0       -2.507279    3.299195   -0.535722
     44          1           0        0.509560    1.780703   -0.851635
     45          1           0       -0.269439    1.639261   -3.208776
     46          1           0       -2.525295    2.474314   -3.831358
     47          1           0       -3.963402    3.531802   -2.101461
     48          1           0       -3.139321    3.758633    0.221698
     49          8           0        0.163767    1.966880    1.607569
     50          1           0       -0.267346    1.096306    1.366552
     51          6           0        2.428924    0.669317    1.287918
     52          8           0        2.164335    0.219867    0.185190
     53          8           0        2.138761    0.056402    2.421984
     54          1           0        1.477613   -0.677216    2.278941
     55          6           0        3.180060    1.961975    1.504732
     56          1           0        2.723397    2.462129    2.363163
     57          1           0        4.210665    1.708539    1.793359
     58          6           0       -0.755992    2.958621    1.253749
     59          1           0       -1.633115    2.961803    1.925441
     60          1           0       -0.252143    3.925356    1.382836
     61          6           0       -1.652541   -0.290569    3.716319
     62          1           0       -0.963668    0.557359    3.728871
     63          1           0       -2.684385    0.052264    3.617713
     64          1           0       -1.532071   -0.905337    4.609424
     65          6           0        3.164900    2.858164    0.273628
     66          1           0        3.576660    2.310855   -0.583082
     67          1           0        2.121032    3.078876    0.025194
     68          6           0        3.937935    4.154757    0.494030
     69          1           0        3.915019    4.788584   -0.397120
     70          1           0        3.509805    4.727294    1.323482
     71          1           0        4.987204    3.954277    0.737205
     72          6           0        5.221780   -1.915092   -0.669926
     73          1           0        5.844046   -1.857777    0.225326
     74          1           0        5.715126   -2.575095   -1.391086
     75          6           0        4.940840   -0.547542   -1.297405
     76          1           0        4.694887    0.175235   -0.513605
     77          1           0        5.774319   -0.159465   -1.886436
 ---------------------------------------------------------------------
 Rotational constants (GHZ):           0.1427302           0.0955986           0.0860734
 Leave Link  202 at Fri Feb  8 01:59:00 2019, MaxMem=   104857600 cpu:               2.4 elap:               0.1
 (Enter /home/xinyan/g16/l301.exe)
 Standard basis: 6-31G(d) (6D, 7F)
 Ernie: Thresh=  0.10000D-02 Tol=  0.10000D-05 Strict=F.
 There are   626 symmetry adapted cartesian basis functions of A   symmetry.
 There are   626 symmetry adapted basis functions of A   symmetry.
   626 basis functions,  1196 primitive gaussians,   626 cartesian basis functions
   140 alpha electrons      140 beta electrons
       nuclear repulsion energy      4876.7558358563 Hartrees.
 IExCor= 4336 DFT=T Ex+Corr=M062X ExCW=0 ScaHFX=  0.540000
 ScaDFX=  1.000000  1.000000  1.000000  1.000000 ScalE2=  1.000000  1.000000
 IRadAn=      5 IRanWt=     -1 IRanGd=            0 ICorTp=0 IEmpDi=131
 NAtoms=   77 NActive=   77 NUniq=   77 SFac= 1.00D+00 NAtFMM=   60 NAOKFM=T Big=T
 Integral buffers will be    131072 words long.
 Raffenetti 2 integral format.
 Two-electron integral symmetry is turned on.
 R6Disp:  Grimme-D3 Dispersion energy=       -0.0105677437 Hartrees.
 Nuclear repulsion after empirical dispersion term =     4876.7452681126 Hartrees.
 Leave Link  301 at Fri Feb  8 01:59:01 2019, MaxMem=   104857600 cpu:               3.0 elap:               0.2
 (Enter /home/xinyan/g16/l302.exe)
 NPDir=0 NMtPBC=     1 NCelOv=     1 NCel=       1 NClECP=     1 NCelD=      1
         NCelK=      1 NCelE2=     1 NClLst=     1 CellRange=     0.0.
 One-electron integrals computed using PRISM.
 One-electron integral symmetry used in STVInt
 PrsmSu:  requested number of processors reduced to:  23 ShMem   1 Linda.
 NBasis=   626 RedAO= T EigKep=  4.36D-04  NBF=   626
 NBsUse=   626 1.00D-06 EigRej= -1.00D+00 NBFU=   626
 Precomputing XC quadrature grid using
 IXCGrd= 4 IRadAn=           5 IRanWt=          -1 IRanGd=           0 AccXCQ= 0.00D+00.
 Generated NRdTot=       0 NPtTot=           0 NUsed=           0 NTot=          32
 NSgBfM=   615   613   614   615   615 MxSgAt=    77 MxSgA2=    77.
 Leave Link  302 at Fri Feb  8 01:59:04 2019, MaxMem=   104857600 cpu:              88.6 elap:               3.9
 (Enter /home/xinyan/g16/l303.exe)
 DipDrv:  MaxL=1.
 Leave Link  303 at Fri Feb  8 01:59:05 2019, MaxMem=   104857600 cpu:               6.2 elap:               0.3
 (Enter /home/xinyan/g16/l401.exe)
 ExpMin= 1.17D-01 ExpMax= 2.19D+04 ExpMxC= 3.30D+03 IAcc=3 IRadAn=         5 AccDes= 0.00D+00
 Harris functional with IExCor= 1009 and IRadAn=       5 diagonalized for initial guess.
 HarFok:  IExCor= 1009 AccDes= 0.00D+00 IRadAn=         5 IDoV= 1 UseB2=F ITyADJ=14
 ICtDFT=  3500011 ScaDFX=  1.000000  1.000000  1.000000  1.000000
 FoFCou: FMM=F IPFlag=           0 FMFlag=      100000 FMFlg1=        2001
         NFxFlg=           0 DoJE=T BraDBF=F KetDBF=T FulRan=T
         wScrn=  0.000000 ICntrl=       500 IOpCl=  0 I1Cent=   200000004 NGrid=           0
         NMat0=    1 NMatS0=      1 NMatT0=    0 NMatD0=    1 NMtDS0=    0 NMtDT0=    0
 Petite list used in FoFCou.
 Harris En= -1990.55473023274    
 JPrj=0 DoOrth=F DoCkMO=F.
 Leave Link  401 at Fri Feb  8 01:59:09 2019, MaxMem=   104857600 cpu:              97.3 elap:               4.1
 (Enter /home/xinyan/g16/l502.exe)
 Integral symmetry usage will be decided dynamically.
 Closed shell SCF:
 Using DIIS extrapolation, IDIIS=  1040.
 NGot=   104857600 LenX=   104051656 LenY=   103659154
 Requested convergence on RMS density matrix=1.00D-08 within 128 cycles.
 Requested convergence on MAX density matrix=1.00D-06.
 Requested convergence on             energy=1.00D-06.
 No special actions if energy rises.
 Fock matrices will be formed incrementally for  20 cycles.
 Integral accuracy reduced to 1.0D-05 until final iterations.

 Cycle   1  Pass 0  IDiag  1:
 FoFJK:  IHMeth= 1 ICntrl=       0 DoSepK=F KAlg= 0 I1Cent=           0 FoldK=F
 IRaf= 990000000 NMat=       1 IRICut=       1 DoRegI=T DoRafI=F ISym2E= 0 IDoP0=0 IntGTp=1.
 FoFCou: FMM=T IPFlag=           0 FMFlag=      100000 FMFlg1=        2001
         NFxFlg=           0 DoJE=F BraDBF=F KetDBF=F FulRan=T
         wScrn=  0.000000 ICntrl=         0 IOpCl=  0 I1Cent=           0 NGrid=           0
         NMat0=    1 NMatS0=      1 NMatT0=    0 NMatD0=    1 NMtDS0=    0 NMtDT0=    0
 Symmetry not used in FoFCou.
 FMM levels:  10  Number of levels for PrismC:   9
 E= -1990.35049011173    
 DIIS: error= 2.50D-02 at cycle   1 NSaved=   1.
 NSaved= 1 IEnMin= 1 EnMin= -1990.35049011173     IErMin= 1 ErrMin= 2.50D-02
 ErrMax= 2.50D-02  0.00D+00 EMaxC= 1.00D-01 BMatC= 1.22D+00 BMatP= 1.22D+00
 IDIUse=3 WtCom= 7.50D-01 WtEn= 2.50D-01
 Coeff-Com:  0.100D+01
 Coeff-En:   0.100D+01
 Coeff:      0.100D+01
 Gap=     0.376 Goal=   None    Shift=    0.000
 GapD=    0.376 DampG=1.000 DampE=0.500 DampFc=0.5000 IDamp=-1.
 Damping current iteration by 5.00D-01
 RMSDP=3.20D-03 MaxDP=3.20D-01              OVMax= 1.42D-01

 Cycle   2  Pass 0  IDiag  1:
 RMSU=  1.59D-03    CP:  9.87D-01
 E= -1990.86419100081     Delta-E=       -0.513700889082 Rises=F Damp=T
 DIIS: error= 9.32D-03 at cycle   2 NSaved=   2.
 NSaved= 2 IEnMin= 2 EnMin= -1990.86419100081     IErMin= 2 ErrMin= 9.32D-03
 ErrMax= 9.32D-03  0.00D+00 EMaxC= 1.00D-01 BMatC= 8.81D-02 BMatP= 1.22D+00
 IDIUse=3 WtCom= 9.07D-01 WtEn= 9.32D-02
 Coeff-Com: -0.438D-01 0.104D+01
 Coeff-En:   0.000D+00 0.100D+01
 Coeff:     -0.397D-01 0.104D+01
 Gap=     0.253 Goal=   None    Shift=    0.000
 RMSDP=7.74D-04 MaxDP=7.52D-02 DE=-5.14D-01 OVMax= 9.35D-02

 Cycle   3  Pass 0  IDiag  1:
 RMSU=  7.69D-04    CP:  9.81D-01  1.01D+00
 E= -1991.36012708537     Delta-E=       -0.495936084559 Rises=F Damp=F
 DIIS: error= 6.51D-03 at cycle   3 NSaved=   3.
 NSaved= 3 IEnMin= 3 EnMin= -1991.36012708537     IErMin= 3 ErrMin= 6.51D-03
 ErrMax= 6.51D-03  0.00D+00 EMaxC= 1.00D-01 BMatC= 3.70D-02 BMatP= 8.81D-02
 IDIUse=3 WtCom= 9.35D-01 WtEn= 6.51D-02
 Coeff-Com: -0.710D-01 0.407D+00 0.664D+00
 Coeff-En:   0.000D+00 0.000D+00 0.100D+01
 Coeff:     -0.664D-01 0.380D+00 0.686D+00
 Gap=     0.253 Goal=   None    Shift=    0.000
 RMSDP=4.21D-04 MaxDP=4.02D-02 DE=-4.96D-01 OVMax= 4.35D-02

 Cycle   4  Pass 0  IDiag  1:
 RMSU=  2.87D-04    CP:  9.83D-01  1.09D+00  6.35D-01
 E= -1991.38155137830     Delta-E=       -0.021424292929 Rises=F Damp=F
 DIIS: error= 4.28D-03 at cycle   4 NSaved=   4.
 NSaved= 4 IEnMin= 4 EnMin= -1991.38155137830     IErMin= 4 ErrMin= 4.28D-03
 ErrMax= 4.28D-03  0.00D+00 EMaxC= 1.00D-01 BMatC= 1.06D-02 BMatP= 3.70D-02
 IDIUse=3 WtCom= 9.57D-01 WtEn= 4.28D-02
 Coeff-Com: -0.263D-01 0.867D-01 0.376D+00 0.564D+00
 Coeff-En:   0.000D+00 0.000D+00 0.228D+00 0.772D+00
 Coeff:     -0.252D-01 0.830D-01 0.370D+00 0.573D+00
 Gap=     0.243 Goal=   None    Shift=    0.000
 RMSDP=1.78D-04 MaxDP=1.25D-02 DE=-2.14D-02 OVMax= 1.86D-02

 Cycle   5  Pass 0  IDiag  1:
 RMSU=  8.32D-05    CP:  9.82D-01  1.08D+00  7.49D-01  5.44D-01
 E= -1991.38999726556     Delta-E=       -0.008445887264 Rises=F Damp=F
 DIIS: error= 1.01D-03 at cycle   5 NSaved=   5.
 NSaved= 5 IEnMin= 5 EnMin= -1991.38999726556     IErMin= 5 ErrMin= 1.01D-03
 ErrMax= 1.01D-03  0.00D+00 EMaxC= 1.00D-01 BMatC= 5.89D-04 BMatP= 1.06D-02
 IDIUse=3 WtCom= 9.90D-01 WtEn= 1.01D-02
 Coeff-Com: -0.819D-02 0.196D-01 0.145D+00 0.289D+00 0.555D+00
 Coeff-En:   0.000D+00 0.000D+00 0.000D+00 0.000D+00 0.100D+01
 Coeff:     -0.811D-02 0.194D-01 0.143D+00 0.286D+00 0.560D+00
 Gap=     0.245 Goal=   None    Shift=    0.000
 RMSDP=4.83D-05 MaxDP=3.77D-03 DE=-8.45D-03 OVMax= 5.41D-03

 Cycle   6  Pass 0  IDiag  1:
 RMSU=  2.40D-05    CP:  9.82D-01  1.08D+00  7.52D-01  6.18D-01  5.66D-01
 E= -1991.39050213916     Delta-E=       -0.000504873597 Rises=F Damp=F
 DIIS: error= 2.09D-04 at cycle   6 NSaved=   6.
 NSaved= 6 IEnMin= 6 EnMin= -1991.39050213916     IErMin= 6 ErrMin= 2.09D-04
 ErrMax= 2.09D-04  0.00D+00 EMaxC= 1.00D-01 BMatC= 3.84D-05 BMatP= 5.89D-04
 IDIUse=3 WtCom= 9.98D-01 WtEn= 2.09D-03
 Coeff-Com: -0.120D-02 0.109D-02 0.306D-01 0.772D-01 0.261D+00 0.632D+00
 Coeff-En:   0.000D+00 0.000D+00 0.000D+00 0.000D+00 0.000D+00 0.100D+01
 Coeff:     -0.120D-02 0.109D-02 0.305D-01 0.770D-01 0.260D+00 0.633D+00
 Gap=     0.245 Goal=   None    Shift=    0.000
 RMSDP=1.23D-05 MaxDP=6.52D-04 DE=-5.05D-04 OVMax= 1.76D-03

 Cycle   7  Pass 0  IDiag  1:
 RMSU=  7.86D-06    CP:  9.82D-01  1.08D+00  7.55D-01  6.17D-01  6.40D-01
                    CP:  7.17D-01
 E= -1991.39053940168     Delta-E=       -0.000037262524 Rises=F Damp=F
 DIIS: error= 3.89D-05 at cycle   7 NSaved=   7.
 NSaved= 7 IEnMin= 7 EnMin= -1991.39053940168     IErMin= 7 ErrMin= 3.89D-05
 ErrMax= 3.89D-05  0.00D+00 EMaxC= 1.00D-01 BMatC= 2.92D-06 BMatP= 3.84D-05
 IDIUse=1 WtCom= 1.00D+00 WtEn= 0.00D+00
 Coeff-Com:  0.296D-03-0.146D-02-0.791D-03 0.589D-02 0.625D-01 0.268D+00
 Coeff-Com:  0.665D+00
 Coeff:      0.296D-03-0.146D-02-0.791D-03 0.589D-02 0.625D-01 0.268D+00
 Coeff:      0.665D+00
 Gap=     0.244 Goal=   None    Shift=    0.000
 RMSDP=4.17D-06 MaxDP=2.36D-04 DE=-3.73D-05 OVMax= 3.24D-04

 Initial convergence to 1.0D-05 achieved.  Increase integral accuracy.
 Cycle   8  Pass 1  IDiag  1:
 E= -1991.39078105175     Delta-E=       -0.000241650073 Rises=F Damp=F
 DIIS: error= 1.69D-04 at cycle   1 NSaved=   1.
 NSaved= 1 IEnMin= 1 EnMin= -1991.39078105175     IErMin= 1 ErrMin= 1.69D-04
 ErrMax= 1.69D-04  0.00D+00 EMaxC= 1.00D-01 BMatC= 1.25D-05 BMatP= 1.25D-05
 IDIUse=3 WtCom= 9.98D-01 WtEn= 1.69D-03
 Coeff-Com:  0.100D+01
 Coeff-En:   0.100D+01
 Coeff:      0.100D+01
 Gap=     0.245 Goal=   None    Shift=    0.000
 RMSDP=4.17D-06 MaxDP=2.36D-04 DE=-2.42D-04 OVMax= 5.26D-04

 Cycle   9  Pass 1  IDiag  1:
 RMSU=  6.92D-05    CP:  1.00D+00
 E= -1991.39079251064     Delta-E=       -0.000011458889 Rises=F Damp=F
 DIIS: error= 3.09D-05 at cycle   2 NSaved=   2.
 NSaved= 2 IEnMin= 2 EnMin= -1991.39079251064     IErMin= 2 ErrMin= 3.09D-05
 ErrMax= 3.09D-05  0.00D+00 EMaxC= 1.00D-01 BMatC= 9.18D-07 BMatP= 1.25D-05
 IDIUse=1 WtCom= 1.00D+00 WtEn= 0.00D+00
 Coeff-Com:  0.820D-01 0.918D+00
 Coeff:      0.820D-01 0.918D+00
 Gap=     0.244 Goal=   None    Shift=    0.000
 RMSDP=4.13D-06 MaxDP=2.59D-04 DE=-1.15D-05 OVMax= 4.32D-04

 Cycle  10  Pass 1  IDiag  1:
 RMSU=  3.61D-06    CP:  1.00D+00  1.03D+00
 E= -1991.39079197920     Delta-E=        0.000000531443 Rises=F Damp=F
 DIIS: error= 4.60D-05 at cycle   3 NSaved=   3.
 NSaved= 3 IEnMin= 2 EnMin= -1991.39079251064     IErMin= 2 ErrMin= 3.09D-05
 ErrMax= 4.60D-05  0.00D+00 EMaxC= 1.00D-01 BMatC= 1.53D-06 BMatP= 9.18D-07
 IDIUse=1 WtCom= 1.00D+00 WtEn= 0.00D+00
 Coeff-Com: -0.159D-01 0.570D+00 0.446D+00
 Coeff:     -0.159D-01 0.570D+00 0.446D+00
 Gap=     0.245 Goal=   None    Shift=    0.000
 RMSDP=2.01D-06 MaxDP=1.59D-04 DE= 5.31D-07 OVMax= 3.02D-04

 Cycle  11  Pass 1  IDiag  1:
 RMSU=  6.20D-07    CP:  1.00D+00  1.03D+00  4.79D-01
 E= -1991.39079331314     Delta-E=       -0.000001333941 Rises=F Damp=F
 DIIS: error= 4.10D-06 at cycle   4 NSaved=   4.
 NSaved= 4 IEnMin= 4 EnMin= -1991.39079331314     IErMin= 4 ErrMin= 4.10D-06
 ErrMax= 4.10D-06  0.00D+00 EMaxC= 1.00D-01 BMatC= 9.99D-09 BMatP= 9.18D-07
 IDIUse=1 WtCom= 1.00D+00 WtEn= 0.00D+00
 Coeff-Com: -0.843D-02 0.251D+00 0.211D+00 0.547D+00
 Coeff:     -0.843D-02 0.251D+00 0.211D+00 0.547D+00
 Gap=     0.245 Goal=   None    Shift=    0.000
 RMSDP=2.05D-07 MaxDP=1.13D-05 DE=-1.33D-06 OVMax= 1.85D-05

 Cycle  12  Pass 1  IDiag  1:
 RMSU=  1.84D-07    CP:  1.00D+00  1.03D+00  4.95D-01  8.94D-01
 E= -1991.39079332213     Delta-E=       -0.000000008992 Rises=F Damp=F
 DIIS: error= 1.40D-06 at cycle   5 NSaved=   5.
 NSaved= 5 IEnMin= 5 EnMin= -1991.39079332213     IErMin= 5 ErrMin= 1.40D-06
 ErrMax= 1.40D-06  0.00D+00 EMaxC= 1.00D-01 BMatC= 8.74D-10 BMatP= 9.99D-09
 IDIUse=1 WtCom= 1.00D+00 WtEn= 0.00D+00
 Coeff-Com: -0.528D-03-0.580D-03 0.994D-02 0.199D+00 0.792D+00
 Coeff:     -0.528D-03-0.580D-03 0.994D-02 0.199D+00 0.792D+00
 Gap=     0.245 Goal=   None    Shift=    0.000
 RMSDP=8.82D-08 MaxDP=4.04D-06 DE=-8.99D-09 OVMax= 1.30D-05

 Cycle  13  Pass 1  IDiag  1:
 RMSU=  6.55D-08    CP:  1.00D+00  1.03D+00  4.99D-01  9.79D-01  8.95D-01
 E= -1991.39079332293     Delta-E=       -0.000000000797 Rises=F Damp=F
 DIIS: error= 8.19D-07 at cycle   6 NSaved=   6.
 NSaved= 6 IEnMin= 6 EnMin= -1991.39079332293     IErMin= 6 ErrMin= 8.19D-07
 ErrMax= 8.19D-07  0.00D+00 EMaxC= 1.00D-01 BMatC= 2.82D-10 BMatP= 8.74D-10
 IDIUse=1 WtCom= 1.00D+00 WtEn= 0.00D+00
 Coeff-Com:  0.972D-03-0.379D-01-0.246D-01 0.239D-01 0.441D+00 0.597D+00
 Coeff:      0.972D-03-0.379D-01-0.246D-01 0.239D-01 0.441D+00 0.597D+00
 Gap=     0.245 Goal=   None    Shift=    0.000
 RMSDP=3.40D-08 MaxDP=2.80D-06 DE=-7.97D-10 OVMax= 5.14D-06

 Cycle  14  Pass 1  IDiag  1:
 RMSU=  2.46D-08    CP:  1.00D+00  1.03D+00  5.02D-01  9.91D-01  9.79D-01
                    CP:  8.11D-01
 E= -1991.39079332323     Delta-E=       -0.000000000298 Rises=F Damp=F
 DIIS: error= 2.28D-07 at cycle   7 NSaved=   7.
 NSaved= 7 IEnMin= 7 EnMin= -1991.39079332323     IErMin= 7 ErrMin= 2.28D-07
 ErrMax= 2.28D-07  0.00D+00 EMaxC= 1.00D-01 BMatC= 1.70D-11 BMatP= 2.82D-10
 IDIUse=1 WtCom= 1.00D+00 WtEn= 0.00D+00
 Coeff-Com:  0.439D-03-0.152D-01-0.101D-01-0.125D-01 0.998D-01 0.231D+00
 Coeff-Com:  0.706D+00
 Coeff:      0.439D-03-0.152D-01-0.101D-01-0.125D-01 0.998D-01 0.231D+00
 Coeff:      0.706D+00
 Gap=     0.245 Goal=   None    Shift=    0.000
 RMSDP=1.07D-08 MaxDP=7.67D-07 DE=-2.98D-10 OVMax= 1.33D-06

 Cycle  15  Pass 1  IDiag  1:
 RMSU=  8.15D-09    CP:  1.00D+00  1.03D+00  5.03D-01  9.94D-01  9.92D-01
                    CP:  8.89D-01  1.08D+00
 E= -1991.39079332332     Delta-E=       -0.000000000092 Rises=F Damp=F
 DIIS: error= 7.56D-08 at cycle   8 NSaved=   8.
 NSaved= 8 IEnMin= 8 EnMin= -1991.39079332332     IErMin= 8 ErrMin= 7.56D-08
 ErrMax= 7.56D-08  0.00D+00 EMaxC= 1.00D-01 BMatC= 2.81D-12 BMatP= 1.70D-11
 IDIUse=1 WtCom= 1.00D+00 WtEn= 0.00D+00
 Coeff-Com: -0.344D-04 0.207D-02 0.164D-02-0.110D-01-0.515D-01-0.289D-01
 Coeff-Com:  0.290D+00 0.798D+00
 Coeff:     -0.344D-04 0.207D-02 0.164D-02-0.110D-01-0.515D-01-0.289D-01
 Coeff:      0.290D+00 0.798D+00
 Gap=     0.245 Goal=   None    Shift=    0.000
 RMSDP=4.73D-09 MaxDP=3.29D-07 DE=-9.19D-11 OVMax= 7.84D-07

 SCF Done:  E(RM062X) =  -1991.39079332     A.U. after   15 cycles
            NFock= 15  Conv=0.47D-08     -V/T= 2.0076
 KE= 1.976457813395D+03 PE=-1.440600691508D+04 EE= 5.561413040251D+03
 Leave Link  502 at Fri Feb  8 02:01:45 2019, MaxMem=   104857600 cpu:            3732.5 elap:             155.8
 (Enter /home/xinyan/g16/l601.exe)
 Copying SCF densities to generalized density rwf, IOpCl= 0 IROHF=0.

 **********************************************************************

            Population analysis using the SCF density.

 **********************************************************************

 Orbital symmetries:
       Occupied  (A) (A) (A) (A) (A) (A) (A) (A) (A) (A) (A) (A)
                 (A) (A) (A) (A) (A) (A) (A) (A) (A) (A) (A) (A)
                 (A) (A) (A) (A) (A) (A) (A) (A) (A) (A) (A) (A)
                 (A) (A) (A) (A) (A) (A) (A) (A) (A) (A) (A) (A)
                 (A) (A) (A) (A) (A) (A) (A) (A) (A) (A) (A) (A)
                 (A) (A) (A) (A) (A) (A) (A) (A) (A) (A) (A) (A)
                 (A) (A) (A) (A) (A) (A) (A) (A) (A) (A) (A) (A)
                 (A) (A) (A) (A) (A) (A) (A) (A) (A) (A) (A) (A)
                 (A) (A) (A) (A) (A) (A) (A) (A) (A) (A) (A) (A)
                 (A) (A) (A) (A) (A) (A) (A) (A) (A) (A) (A) (A)
                 (A) (A) (A) (A) (A) (A) (A) (A) (A) (A) (A) (A)
                 (A) (A) (A) (A) (A) (A) (A) (A)
       Virtual   (A) (A) (A) (A) (A) (A) (A) (A) (A) (A) (A) (A)
                 (A) (A) (A) (A) (A) (A) (A) (A) (A) (A) (A) (A)
                 (A) (A) (A) (A) (A) (A) (A) (A) (A) (A) (A) (A)
                 (A) (A) (A) (A) (A) (A) (A) (A) (A) (A) (A) (A)
                 (A) (A) (A) (A) (A) (A) (A) (A) (A) (A) (A) (A)
                 (A) (A) (A) (A) (A) (A) (A) (A) (A) (A) (A) (A)
                 (A) (A) (A) (A) (A) (A) (A) (A) (A) (A) (A) (A)
                 (A) (A) (A) (A) (A) (A) (A) (A) (A) (A) (A) (A)
                 (A) (A) (A) (A) (A) (A) (A) (A) (A) (A) (A) (A)
                 (A) (A) (A) (A) (A) (A) (A) (A) (A) (A) (A) (A)
                 (A) (A) (A) (A) (A) (A) (A) (A) (A) (A) (A) (A)
                 (A) (A) (A) (A) (A) (A) (A) (A) (A) (A) (A) (A)
                 (A) (A) (A) (A) (A) (A) (A) (A) (A) (A) (A) (A)
                 (A) (A) (A) (A) (A) (A) (A) (A) (A) (A) (A) (A)
                 (A) (A) (A) (A) (A) (A) (A) (A) (A) (A) (A) (A)
                 (A) (A) (A) (A) (A) (A) (A) (A) (A) (A) (A) (A)
                 (A) (A) (A) (A) (A) (A) (A) (A) (A) (A) (A) (A)
                 (A) (A) (A) (A) (A) (A) (A) (A) (A) (A) (A) (A)
                 (A) (A) (A) (A) (A) (A) (A) (A) (A) (A) (A) (A)
                 (A) (A) (A) (A) (A) (A) (A) (A) (A) (A) (A) (A)
                 (A) (A) (A) (A) (A) (A) (A) (A) (A) (A) (A) (A)
                 (A) (A) (A) (A) (A) (A) (A) (A) (A) (A) (A) (A)
                 (A) (A) (A) (A) (A) (A) (A) (A) (A) (A) (A) (A)
                 (A) (A) (A) (A) (A) (A) (A) (A) (A) (A) (A) (A)
                 (A) (A) (A) (A) (A) (A) (A) (A) (A) (A) (A) (A)
                 (A) (A) (A) (A) (A) (A) (A) (A) (A) (A) (A) (A)
                 (A) (A) (A) (A) (A) (A) (A) (A) (A) (A) (A) (A)
                 (A) (A) (A) (A) (A) (A) (A) (A) (A) (A) (A) (A)
                 (A) (A) (A) (A) (A) (A) (A) (A) (A) (A) (A) (A)
                 (A) (A) (A) (A) (A) (A) (A) (A) (A) (A) (A) (A)
                 (A) (A) (A) (A) (A) (A) (A) (A) (A) (A) (A) (A)
                 (A) (A) (A) (A) (A) (A) (A) (A) (A) (A) (A) (A)
                 (A) (A) (A) (A) (A) (A) (A) (A) (A) (A) (A) (A)
                 (A) (A) (A) (A) (A) (A) (A) (A) (A) (A) (A) (A)
                 (A) (A) (A) (A) (A) (A) (A) (A) (A) (A) (A) (A)
                 (A) (A) (A) (A) (A) (A) (A) (A) (A) (A) (A) (A)
                 (A) (A) (A) (A) (A) (A) (A) (A) (A) (A) (A) (A)
                 (A) (A) (A) (A) (A) (A) (A) (A) (A) (A) (A) (A)
                 (A) (A) (A) (A) (A) (A) (A) (A) (A) (A) (A) (A)
                 (A) (A) (A) (A) (A) (A) (A) (A) (A) (A) (A) (A)
                 (A) (A) (A) (A) (A) (A)
 The electronic state is 1-A.
 Alpha  occ. eigenvalues --  -90.10413 -19.63418 -19.60133 -19.59360 -19.58647
 Alpha  occ. eigenvalues --  -19.58392 -14.84821 -14.80545 -14.69461 -10.65454
 Alpha  occ. eigenvalues --  -10.63249 -10.62374 -10.61543 -10.59171 -10.59156
 Alpha  occ. eigenvalues --  -10.59018 -10.57810 -10.57428 -10.56867 -10.56655
 Alpha  occ. eigenvalues --  -10.56103 -10.55788 -10.55479 -10.54964 -10.54919
 Alpha  occ. eigenvalues --  -10.54854 -10.54565 -10.54533 -10.54481 -10.53820
 Alpha  occ. eigenvalues --  -10.53724 -10.53561 -10.53110 -10.52885 -10.52661
 Alpha  occ. eigenvalues --  -10.52471  -8.41380  -6.33618  -6.33525  -6.33445
 Alpha  occ. eigenvalues --   -1.19152  -1.17950  -1.12956  -1.10372  -1.09861
 Alpha  occ. eigenvalues --   -1.09196  -1.06218  -0.97577  -0.95244  -0.94845
 Alpha  occ. eigenvalues --   -0.92201  -0.89863  -0.88612  -0.87965  -0.85024
 Alpha  occ. eigenvalues --   -0.84969  -0.83654  -0.83511  -0.83304  -0.80237
 Alpha  occ. eigenvalues --   -0.79068  -0.76378  -0.75677  -0.74655  -0.70956
 Alpha  occ. eigenvalues --   -0.70204  -0.69026  -0.68756  -0.68373  -0.67977
 Alpha  occ. eigenvalues --   -0.65705  -0.64728  -0.63969  -0.63444  -0.61676
 Alpha  occ. eigenvalues --   -0.60290  -0.59417  -0.58933  -0.58382  -0.56179
 Alpha  occ. eigenvalues --   -0.55499  -0.55160  -0.55071  -0.53987  -0.53659
 Alpha  occ. eigenvalues --   -0.53434  -0.53088  -0.52305  -0.51989  -0.51735
 Alpha  occ. eigenvalues --   -0.51187  -0.51025  -0.50614  -0.50299  -0.49836
 Alpha  occ. eigenvalues --   -0.49640  -0.49405  -0.48862  -0.48382  -0.48025
 Alpha  occ. eigenvalues --   -0.47761  -0.47174  -0.46959  -0.46845  -0.45960
 Alpha  occ. eigenvalues --   -0.45899  -0.45262  -0.43979  -0.43654  -0.43428
 Alpha  occ. eigenvalues --   -0.42761  -0.42432  -0.42295  -0.41928  -0.41839
 Alpha  occ. eigenvalues --   -0.41167  -0.40808  -0.40619  -0.39935  -0.39518
 Alpha  occ. eigenvalues --   -0.39383  -0.39167  -0.38681  -0.38377  -0.37765
 Alpha  occ. eigenvalues --   -0.37410  -0.36311  -0.35958  -0.35401  -0.35107
 Alpha  occ. eigenvalues --   -0.34435  -0.33179  -0.32145  -0.31661  -0.31522
 Alpha  occ. eigenvalues --   -0.29821  -0.28871  -0.28332  -0.27600  -0.25477
 Alpha virt. eigenvalues --   -0.01024   0.00642   0.03353   0.03838   0.09080
 Alpha virt. eigenvalues --    0.10096   0.10978   0.11691   0.13005   0.13366
 Alpha virt. eigenvalues --    0.13757   0.14159   0.15277   0.15581   0.15729
 Alpha virt. eigenvalues --    0.16280   0.16534   0.17146   0.17422   0.17852
 Alpha virt. eigenvalues --    0.18215   0.18329   0.18576   0.18890   0.18996
 Alpha virt. eigenvalues --    0.19379   0.19620   0.20205   0.20322   0.20327
 Alpha virt. eigenvalues --    0.20851   0.21048   0.21140   0.21479   0.21805
 Alpha virt. eigenvalues --    0.22309   0.22401   0.22831   0.22846   0.23245
 Alpha virt. eigenvalues --    0.23450   0.24089   0.24221   0.24317   0.24635
 Alpha virt. eigenvalues --    0.24897   0.24934   0.25481   0.26175   0.26361
 Alpha virt. eigenvalues --    0.27057   0.27293   0.27770   0.28006   0.28160
 Alpha virt. eigenvalues --    0.28725   0.29016   0.29668   0.30323   0.30393
 Alpha virt. eigenvalues --    0.30858   0.31042   0.31365   0.31735   0.32460
 Alpha virt. eigenvalues --    0.32668   0.33332   0.34609   0.35260   0.35431
 Alpha virt. eigenvalues --    0.35703   0.36546   0.37120   0.38400   0.38441
 Alpha virt. eigenvalues --    0.38886   0.39712   0.41467   0.42120   0.42778
 Alpha virt. eigenvalues --    0.45061   0.47176   0.47630   0.48613   0.50073
 Alpha virt. eigenvalues --    0.51373   0.52722   0.53553   0.54017   0.55380
 Alpha virt. eigenvalues --    0.55666   0.56089   0.56999   0.57169   0.57953
 Alpha virt. eigenvalues --    0.58014   0.58146   0.58778   0.58988   0.59385
 Alpha virt. eigenvalues --    0.59567   0.60314   0.60841   0.61089   0.61236
 Alpha virt. eigenvalues --    0.61448   0.61579   0.61787   0.62396   0.62600
 Alpha virt. eigenvalues --    0.63366   0.63862   0.64455   0.64846   0.65274
 Alpha virt. eigenvalues --    0.65884   0.66539   0.66678   0.67084   0.67389
 Alpha virt. eigenvalues --    0.67596   0.68342   0.68651   0.69546   0.69966
 Alpha virt. eigenvalues --    0.70332   0.70794   0.71435   0.71708   0.72226
 Alpha virt. eigenvalues --    0.72971   0.73460   0.73982   0.74426   0.75047
 Alpha virt. eigenvalues --    0.75491   0.75948   0.76447   0.76671   0.77502
 Alpha virt. eigenvalues --    0.77901   0.78321   0.78977   0.79918   0.80822
 Alpha virt. eigenvalues --    0.81057   0.81390   0.82232   0.83024   0.83359
 Alpha virt. eigenvalues --    0.84112   0.84867   0.85088   0.85435   0.86430
 Alpha virt. eigenvalues --    0.87053   0.87922   0.88066   0.88156   0.88615
 Alpha virt. eigenvalues --    0.89240   0.89876   0.90255   0.90369   0.90554
 Alpha virt. eigenvalues --    0.91061   0.91476   0.92207   0.92660   0.92711
 Alpha virt. eigenvalues --    0.92931   0.93465   0.93865   0.94301   0.94755
 Alpha virt. eigenvalues --    0.95170   0.95440   0.96219   0.96532   0.96599
 Alpha virt. eigenvalues --    0.96777   0.96981   0.97112   0.97563   0.97908
 Alpha virt. eigenvalues --    0.98370   0.98885   0.99155   0.99565   0.99921
 Alpha virt. eigenvalues --    1.00122   1.00490   1.01574   1.01725   1.02015
 Alpha virt. eigenvalues --    1.02557   1.02764   1.03351   1.03878   1.04222
 Alpha virt. eigenvalues --    1.04540   1.05277   1.06046   1.06372   1.06852
 Alpha virt. eigenvalues --    1.07954   1.08168   1.08469   1.10271   1.10962
 Alpha virt. eigenvalues --    1.11480   1.12356   1.12623   1.13732   1.14053
 Alpha virt. eigenvalues --    1.15147   1.15511   1.16407   1.17333   1.17634
 Alpha virt. eigenvalues --    1.18417   1.19088   1.19584   1.20791   1.21642
 Alpha virt. eigenvalues --    1.22234   1.23157   1.23665   1.24217   1.25255
 Alpha virt. eigenvalues --    1.26077   1.26885   1.27144   1.28038   1.28614
 Alpha virt. eigenvalues --    1.30264   1.30538   1.30801   1.31352   1.33080
 Alpha virt. eigenvalues --    1.33788   1.34335   1.34961   1.35534   1.36421
 Alpha virt. eigenvalues --    1.36896   1.38118   1.39123   1.39690   1.40504
 Alpha virt. eigenvalues --    1.41093   1.41754   1.43071   1.43354   1.44588
 Alpha virt. eigenvalues --    1.45705   1.46209   1.47372   1.48069   1.49236
 Alpha virt. eigenvalues --    1.49474   1.50279   1.50867   1.51496   1.51757
 Alpha virt. eigenvalues --    1.52236   1.53002   1.54339   1.54641   1.55288
 Alpha virt. eigenvalues --    1.55553   1.56275   1.57188   1.58002   1.58400
 Alpha virt. eigenvalues --    1.59798   1.60019   1.60485   1.61762   1.63356
 Alpha virt. eigenvalues --    1.66627   1.67640   1.69709   1.71245   1.71560
 Alpha virt. eigenvalues --    1.72668   1.73719   1.74643   1.75726   1.77018
 Alpha virt. eigenvalues --    1.77848   1.78660   1.79240   1.80119   1.81435
 Alpha virt. eigenvalues --    1.81567   1.82255   1.82876   1.84473   1.84709
 Alpha virt. eigenvalues --    1.85503   1.86398   1.86681   1.87406   1.87763
 Alpha virt. eigenvalues --    1.88696   1.89364   1.90263   1.91265   1.91806
 Alpha virt. eigenvalues --    1.92131   1.92539   1.92599   1.93122   1.93578
 Alpha virt. eigenvalues --    1.94249   1.94473   1.95124   1.95857   1.96416
 Alpha virt. eigenvalues --    1.96810   1.97693   1.98538   1.98891   1.99649
 Alpha virt. eigenvalues --    2.00023   2.00844   2.01525   2.02613   2.02843
 Alpha virt. eigenvalues --    2.03401   2.03733   2.03933   2.05034   2.05146
 Alpha virt. eigenvalues --    2.05707   2.06204   2.06925   2.07125   2.07510
 Alpha virt. eigenvalues --    2.08723   2.09152   2.09770   2.10642   2.11276
 Alpha virt. eigenvalues --    2.11835   2.12557   2.13023   2.13888   2.14315
 Alpha virt. eigenvalues --    2.14853   2.15397   2.16105   2.16420   2.17206
 Alpha virt. eigenvalues --    2.18104   2.18709   2.19598   2.20496   2.21030
 Alpha virt. eigenvalues --    2.21615   2.21918   2.22934   2.23945   2.24197
 Alpha virt. eigenvalues --    2.25057   2.25319   2.25598   2.27174   2.28174
 Alpha virt. eigenvalues --    2.28761   2.29319   2.30109   2.31007   2.31948
 Alpha virt. eigenvalues --    2.32081   2.32430   2.32921   2.34470   2.35315
 Alpha virt. eigenvalues --    2.35582   2.36371   2.37002   2.38155   2.38391
 Alpha virt. eigenvalues --    2.39264   2.39712   2.39961   2.41589   2.42134
 Alpha virt. eigenvalues --    2.42951   2.43722   2.44489   2.45005   2.46677
 Alpha virt. eigenvalues --    2.48285   2.50371   2.50921   2.51287   2.52135
 Alpha virt. eigenvalues --    2.53448   2.54076   2.54569   2.55984   2.56261
 Alpha virt. eigenvalues --    2.58929   2.60159   2.61413   2.62162   2.63255
 Alpha virt. eigenvalues --    2.63583   2.65349   2.65686   2.66693   2.68027
 Alpha virt. eigenvalues --    2.68550   2.68861   2.69795   2.70541   2.71283
 Alpha virt. eigenvalues --    2.72809   2.73668   2.74452   2.76167   2.76586
 Alpha virt. eigenvalues --    2.76787   2.77768   2.79456   2.79523   2.80291
 Alpha virt. eigenvalues --    2.83639   2.84008   2.86071   2.87159   2.89039
 Alpha virt. eigenvalues --    2.92352   2.93537   2.94210   2.95777   2.97184
 Alpha virt. eigenvalues --    2.99100   2.99835   3.01440   3.02241   3.10537
 Alpha virt. eigenvalues --    3.17357   3.19551   3.23813   3.42676   3.43222
 Alpha virt. eigenvalues --    3.96166   4.00164   4.07250   4.10063   4.12175
 Alpha virt. eigenvalues --    4.13911   4.15423   4.17500   4.17761   4.19811
 Alpha virt. eigenvalues --    4.21955   4.24607   4.24698   4.25942   4.26696
 Alpha virt. eigenvalues --    4.29661   4.31015   4.32298   4.34842   4.35507
 Alpha virt. eigenvalues --    4.36746   4.37838   4.38557   4.41776   4.43628
 Alpha virt. eigenvalues --    4.46679   4.49471   4.50902   4.58236   4.58576
 Alpha virt. eigenvalues --    4.62141   4.63763   4.65759   4.75049   4.75366
 Alpha virt. eigenvalues --    4.78363
          Condensed to atoms (all electrons):
 Mulliken charges:
               1
     1  C   -0.304038
     2  C   -0.304226
     3  C   -0.309854
     4  C   -0.073673
     5  C    0.061706
     6  C   -0.305596
     7  H    0.165752
     8  H    0.160893
     9  H    0.159258
    10  H    0.146953
    11  H    0.156634
    12  H    0.213342
    13  H    0.141251
    14  H    0.180397
    15  H    0.148083
    16  H    0.151775
    17  N   -0.424759
    18  C    0.100769
    19  C    0.084870
    20  C   -0.228264
    21  H    0.206197
    22  C   -0.227233
    23  H    0.263787
    24  C    0.428899
    25  H    0.188329
    26  H    0.206609
    27  N   -0.530066
    28  C   -0.156041
    29  H    0.178436
    30  H    0.198674
    31  C   -0.147498
    32  H    0.169437
    33  H    0.196875
    34  N   -0.754704
    35  S    1.248514
    36  O   -0.646886
    37  O   -0.671368
    38  C    0.048681
    39  C   -0.176775
    40  C   -0.187061
    41  C   -0.170339
    42  C   -0.162858
    43  C   -0.196782
    44  H    0.199489
    45  H    0.140201
    46  H    0.156549
    47  H    0.161703
    48  H    0.155822
    49  O   -0.708097
    50  H    0.478958
    51  C    0.639943
    52  O   -0.524202
    53  O   -0.642298
    54  H    0.485457
    55  C   -0.366224
    56  H    0.199060
    57  H    0.163934
    58  C   -0.070487
    59  H    0.129203
    60  H    0.163644
    61  C   -0.654726
    62  H    0.217604
    63  H    0.188277
    64  H    0.208428
    65  C   -0.286763
    66  H    0.142625
    67  H    0.170396
    68  C   -0.480635
    69  H    0.158125
    70  H    0.158947
    71  H    0.149061
    72  C   -0.337555
    73  H    0.183684
    74  H    0.170120
    75  C   -0.335581
    76  H    0.183772
    77  H    0.173466
 Sum of Mulliken charges =  -0.00000
 Mulliken charges with hydrogens summed into heavy atoms:
               1
     1  C   -0.000450
     2  C    0.015926
     3  C    0.007673
     4  C    0.139668
     5  C    0.202956
     6  C    0.022883
    17  N   -0.424759
    18  C    0.306966
    19  C    0.348657
    20  C   -0.039935
    22  C   -0.020624
    24  C    0.428899
    27  N   -0.530066
    28  C    0.221069
    31  C    0.218814
    34  N   -0.754704
    35  S    1.248514
    36  O   -0.646886
    37  O   -0.671368
    38  C    0.048681
    39  C    0.022714
    40  C   -0.046861
    41  C   -0.013790
    42  C   -0.001155
    43  C   -0.040959
    49  O   -0.229139
    51  C    0.639943
    52  O   -0.524202
    53  O   -0.156841
    55  C   -0.003230
    58  C    0.222360
    61  C   -0.040418
    65  C    0.026258
    68  C   -0.014502
    72  C    0.016249
    75  C    0.021656
 Electronic spatial extent (au):  <R**2>=          15174.5177
 Charge=             -0.0000 electrons
 Dipole moment (field-independent basis, Debye):
    X=              1.6039    Y=             -0.4217    Z=             -6.4676  Tot=              6.6769
 Quadrupole moment (field-independent basis, Debye-Ang):
   XX=           -197.3784   YY=           -224.2706   ZZ=           -221.2705
   XY=            -12.3229   XZ=             -1.7722   YZ=             12.1092
 Traceless Quadrupole moment (field-independent basis, Debye-Ang):
   XX=             16.9281   YY=             -9.9641   ZZ=             -6.9640
   XY=            -12.3229   XZ=             -1.7722   YZ=             12.1092
 Octapole moment (field-independent basis, Debye-Ang**2):
  XXX=             78.8425  YYY=            -30.3478  ZZZ=              3.1888  XYY=             22.0869
  XXY=            -13.7583  XXZ=            -23.7395  XZZ=             -7.5162  YZZ=             19.7862
  YYZ=              6.5837  XYZ=            -15.9120
 Hexadecapole moment (field-independent basis, Debye-Ang**3):
 XXXX=         -10065.5321 YYYY=          -5805.2077 ZZZZ=          -3926.1487 XXXY=           -181.3712
 XXXZ=            -21.9401 YYYX=           -104.6060 YYYZ=             94.7477 ZZZX=            -84.2064
 ZZZY=             -2.0427 XXYY=          -2655.1797 XXZZ=          -2391.5487 YYZZ=          -1747.4784
 XXYZ=             43.4073 YYXZ=             56.7013 ZZXY=            -37.8812
 N-N= 4.876745268113D+03 E-N=-1.440600688134D+04  KE= 1.976457813395D+03
 No NMR shielding tensors so no spin-rotation constants.
 Leave Link  601 at Fri Feb  8 02:01:46 2019, MaxMem=   104857600 cpu:              20.1 elap:               1.0
 (Enter /home/xinyan/g16/l701.exe)
 ... and contract with generalized density number  0.
 Compute integral first derivatives.
 R6Disp: Adding Grimme-D3 dispersion energy 1st derivatives to the gradient.
 Leave Link  701 at Fri Feb  8 02:01:47 2019, MaxMem=   104857600 cpu:              24.3 elap:               1.1
 (Enter /home/xinyan/g16/l702.exe)
 L702 exits ... SP integral derivatives will be done elsewhere.
 Leave Link  702 at Fri Feb  8 02:01:47 2019, MaxMem=   104857600 cpu:               1.2 elap:               0.1
 (Enter /home/xinyan/g16/l703.exe)
 Integral derivatives from FoFJK, PRISM(SPDF).
 Compute integral first derivatives, UseDBF=F ICtDFT=           0.
 Calling FoFJK, ICntrl=      2127 FMM=T ISym2X=0 I1Cent= 0 IOpClX= 0 NMat=1 NMatS=1 NMatT=0.
 FoFJK:  IHMeth= 1 ICntrl=    2127 DoSepK=F KAlg= 0 I1Cent=           0 FoldK=F
 IRaf=         0 NMat=       1 IRICut=       1 DoRegI=T DoRafI=F ISym2E= 0 IDoP0=0 IntGTp=1.
 FoFCou: FMM=T IPFlag=           0 FMFlag=      100000 FMFlg1=        2001
         NFxFlg=           0 DoJE=F BraDBF=F KetDBF=F FulRan=T
         wScrn=  0.000000 ICntrl=      2127 IOpCl=  0 I1Cent=           0 NGrid=           0
         NMat0=    1 NMatS0=      1 NMatT0=    0 NMatD0=    1 NMtDS0=    0 NMtDT0=    0
 Symmetry not used in FoFCou.
 FMM levels:  10  Number of levels for PrismC:   9
 Leave Link  703 at Fri Feb  8 02:02:20 2019, MaxMem=   104857600 cpu:             765.2 elap:              32.8
 (Enter /home/xinyan/g16/l716.exe)
 Dipole        = 6.31025519D-01-1.65899835D-01-2.54455724D+00
 ***** Axes restored to original set *****
 -------------------------------------------------------------------
 Center     Atomic                   Forces (Hartrees/Bohr)
 Number     Number              X              Y              Z
 -------------------------------------------------------------------
      1        6           0.000004430   -0.000106506   -0.000109784
      2        6           0.000056266    0.000004266    0.000107861
      3        6           0.000017151   -0.000048722    0.000005913
      4        6           0.000003897    0.000143650    0.000165528
      5        6          -0.000066964    0.000030149   -0.000070684
      6        6           0.000040220    0.000098560    0.000157565
      7        1          -0.000011637    0.000041069    0.000026350
      8        1           0.000010116    0.000021035    0.000032335
      9        1          -0.000001404    0.000043563    0.000061220
     10        1           0.000009366    0.000037555    0.000041520
     11        1           0.000008742    0.000029764    0.000066818
     12        1           0.000043374   -0.000028661    0.000094302
     13        1          -0.000036365   -0.000176006    0.000148051
     14        1           0.000016637    0.000024195    0.000022960
     15        1           0.000045232    0.000016224    0.000034957
     16        1          -0.000045125    0.000039057    0.000022650
     17        7          -0.000032416   -0.000059098    0.000068329
     18        6          -0.000003730    0.000043972   -0.000007337
     19        6           0.000024820    0.000026644   -0.000043355
     20        6           0.000020033    0.000022614    0.000008475
     21        1           0.000018687    0.000085894    0.000047209
     22        6          -0.000002881   -0.000043096    0.000007548
     23        1           0.000013517    0.000013080    0.000028176
     24        6          -0.000005883   -0.000058572   -0.000046245
     25        1          -0.000003773    0.000056534    0.000024488
     26        1           0.000015071    0.000009921   -0.000006213
     27        7           0.000013562    0.000082126   -0.000009816
     28        6           0.000020959   -0.000067974   -0.000065105
     29        1          -0.000007821   -0.000034510   -0.000092478
     30        1           0.000036894   -0.000071479   -0.000035343
     31        6           0.000019979    0.000025202   -0.000006316
     32        1          -0.000024270    0.000031071   -0.000040354
     33        1          -0.000011434    0.000044772    0.000029769
     34        7           0.000180783    0.000123330   -0.000086031
     35       16          -0.000058726    0.000014662    0.000003400
     36        8          -0.000013730    0.000051600   -0.000001826
     37        8           0.000107135   -0.000059274    0.000022362
     38        6          -0.000066057    0.000066469   -0.000043226
     39        6           0.000021118    0.000089490    0.000033159
     40        6           0.000016193   -0.000009206   -0.000091469
     41        6           0.000062200    0.000017540   -0.000116158
     42        6           0.000008431   -0.000036495   -0.000206231
     43        6          -0.000001234   -0.000018989   -0.000068181
     44        1          -0.000031371    0.000058615   -0.000034897
     45        1           0.000131012    0.000032236   -0.000018920
     46        1           0.000134639   -0.000022359   -0.000115162
     47        1          -0.000006081   -0.000066614   -0.000191281
     48        1          -0.000113031   -0.000076632   -0.000148232
     49        8          -0.000094803   -0.000438722   -0.000108798
     50        1           0.000231625    0.000585953    0.000044944
     51        6           0.000055745   -0.000076415    0.000032121
     52        8          -0.000172270    0.000083328    0.000189658
     53        8          -0.000058338    0.000070715    0.000005191
     54        1          -0.000033222    0.000054808    0.000094048
     55        6          -0.000047291    0.000072527    0.000036541
     56        1           0.000040999    0.000010565    0.000059415
     57        1           0.000022499   -0.000036864    0.000025608
     58        6          -0.001118547   -0.000710809    0.000319238
     59        1           0.000583597   -0.000066925   -0.000585736
     60        1          -0.000249480    0.000372399    0.000188529
     61        6           0.000003573   -0.000109203    0.000034944
     62        1           0.000072102    0.000074349    0.000046326
     63        1           0.000004716    0.000025020    0.000053224
     64        1           0.000009718   -0.000007536    0.000023787
     65        6          -0.000007578   -0.000003857    0.000051308
     66        1          -0.000015403    0.000006540    0.000041071
     67        1          -0.000031012    0.000048086    0.000109761
     68        6           0.000024057    0.000003904    0.000061102
     69        1           0.000016244    0.000017912    0.000048606
     70        1           0.000076431   -0.000016657    0.000067945
     71        1           0.000035311   -0.000045135    0.000002604
     72        6           0.000028401   -0.000020498   -0.000095804
     73        1           0.000037484   -0.000106801   -0.000115613
     74        1          -0.000042228   -0.000046827   -0.000131525
     75        6           0.000022964   -0.000075293    0.000010680
     76        1           0.000032866   -0.000087398   -0.000051789
     77        1           0.000015308   -0.000017827   -0.000063685
 -------------------------------------------------------------------
 Cartesian Forces:  Max     0.001118547 RMS     0.000136218
 Z-matrix is all fixed cartesians, so copy forces.
 Leave Link  716 at Fri Feb  8 02:02:20 2019, MaxMem=   104857600 cpu:               2.4 elap:               0.1
 (Enter /home/xinyan/g16/l103.exe)

 GradGradGradGradGradGradGradGradGradGradGradGradGradGradGradGradGradGrad
 Berny optimization.
 Search for a local minimum.
 Step number   1 out of a maximum of    2
 All quantities printed in internal units (Hartrees-Bohrs-Radians)
 Second derivative matrix not updated -- first step.
 ITU=  0
     Eigenvalues ---   -0.00000  -0.00000  -0.00000   0.00000   0.00000
     Eigenvalues ---    0.00000   0.00000   0.00000   0.00000   0.00000
     Eigenvalues ---    0.00000   0.00000   0.00014   0.00018   0.00033
     Eigenvalues ---    0.00063   0.00116   0.00133   0.00162   0.00181
     Eigenvalues ---    0.00204   0.00218   0.00275   0.00284   0.00394
     Eigenvalues ---    0.00448   0.00511   0.00514   0.00589   0.00598
     Eigenvalues ---    0.00668   0.00676   0.00776   0.00976   0.01018
     Eigenvalues ---    0.01234   0.01645   0.01725   0.01800   0.01826
     Eigenvalues ---    0.01889   0.02011   0.02221   0.02388   0.02519
     Eigenvalues ---    0.02611   0.02699   0.02805   0.03097   0.03529
     Eigenvalues ---    0.03538   0.03575   0.03635   0.03698   0.04083
     Eigenvalues ---    0.04165   0.04219   0.04303   0.04441   0.04802
     Eigenvalues ---    0.04861   0.04880   0.05002   0.05045   0.05057
     Eigenvalues ---    0.05103   0.05134   0.05170   0.05301   0.05349
     Eigenvalues ---    0.05495   0.05594   0.05670   0.05697   0.05744
     Eigenvalues ---    0.05767   0.05795   0.06149   0.06274   0.06380
     Eigenvalues ---    0.06425   0.06512   0.06844   0.06964   0.07015
     Eigenvalues ---    0.07118   0.07187   0.07241   0.07296   0.07349
     Eigenvalues ---    0.07551   0.07875   0.07933   0.08018   0.08128
     Eigenvalues ---    0.08187   0.08568   0.08706   0.09131   0.09661
     Eigenvalues ---    0.09740   0.09999   0.10097   0.10130   0.10210
     Eigenvalues ---    0.11212   0.11411   0.11592   0.11917   0.12421
     Eigenvalues ---    0.12902   0.12985   0.13007   0.13063   0.13300
     Eigenvalues ---    0.13725   0.13789   0.13945   0.14183   0.14357
     Eigenvalues ---    0.15836   0.16354   0.16536   0.16613   0.16745
     Eigenvalues ---    0.16921   0.17213   0.17338   0.17623   0.17711
     Eigenvalues ---    0.18607   0.19016   0.20326   0.20669   0.20766
     Eigenvalues ---    0.21125   0.21809   0.22013   0.23207   0.24757
     Eigenvalues ---    0.26468   0.27623   0.29645   0.29828   0.30079
     Eigenvalues ---    0.30264   0.31618   0.32528   0.34303   0.34858
     Eigenvalues ---    0.35045   0.36642   0.39321   0.41744   0.42387
     Eigenvalues ---    0.43945   0.44993   0.45109   0.48435   0.49335
     Eigenvalues ---    0.50312   0.56062   0.57253   0.59204   0.62496
     Eigenvalues ---    0.65010   0.65811   0.68024   0.68310   0.69305
     Eigenvalues ---    0.70685   0.75501   0.77753   0.78430   0.79658
     Eigenvalues ---    0.82288   0.83036   0.83982   0.85917   0.87072
     Eigenvalues ---    0.89028   0.89423   0.90569   0.91148   0.92310
     Eigenvalues ---    0.93309   0.94046   0.94485   0.95459   0.96011
     Eigenvalues ---    0.96401   0.97488   0.99826   1.00042   1.00314
     Eigenvalues ---    1.01184   1.01942   1.04077   1.04488   1.05570
     Eigenvalues ---    1.05999   1.06216   1.06499   1.07790   1.08809
     Eigenvalues ---    1.09869   1.14225   1.16505   1.17103   1.20093
     Eigenvalues ---    1.22991   1.23990   1.28218   1.37098   1.40332
     Eigenvalues ---    1.48439   1.54163   1.57232   1.59470   1.60467
     Eigenvalues ---    1.71281   1.75788   1.81863   2.11371   2.28359
 Eigenvalue     1 is  -1.55D-15 should be greater than     0.000000 Eigenvector:
                          Y59       Y49       Y60       Y50       Y58
   1                    0.20197   0.20197   0.20197   0.20197   0.20197
                          Y48       Y38       Y43       Y44       Y39
   1                    0.20197   0.20197   0.20197   0.20197   0.20197
 Eigenvalue     2 is  -1.55D-15 should be greater than     0.000000 Eigenvector:
                          X52       X66       X51       X67       X65
   1                    0.20166   0.20166   0.20166   0.20166   0.20166
                          X54       X69       X53       X55       X57
   1                    0.20166   0.20166   0.20166   0.20166   0.20166
 Eigenvalue     3 is  -8.88D-16 should be greater than     0.000000 Eigenvector:
                          Y66       Y67       Y52       Y69       Y65
   1                    0.18328   0.18328   0.18328   0.18328   0.18328
                          Y68       Y51       Y71       Y70       Y55
   1                    0.18328   0.18328   0.18328   0.18328   0.18328
 Eigenvalue     4 is   2.50D-09 Eigenvector:
                          Z44       Z50       Z49       Z45       X59
   1                    0.28258   0.25558   0.25438   0.23224  -0.22015
                          Z39       X60       X49       X58       Z40
   1                    0.20157  -0.19229  -0.18788  -0.17547   0.17299
 Eigenvalue     5 is   6.97D-09 Eigenvector:
                          X46       Z47       X45       Z48       X41
   1                    0.23775  -0.23348   0.22023  -0.19510   0.18642
                          X40       Z42       Z43       X47       X42
   1                    0.17635  -0.17061  -0.14897   0.13701   0.12995
 Eigenvalue     6 is   1.11D-08 Eigenvector:
                          Z54       Z53       Z52       Z69       Z51
   1                    0.44663   0.33074   0.31100  -0.26653   0.24924
                          Z71       Z70       Z68       Y66       Y69
   1                   -0.24582  -0.23432  -0.20221  -0.15957  -0.13320
 Eigenvalue     7 is   2.18D-08 Eigenvector:
                          X54       X69       X53       Y54       X70
   1                    0.39119  -0.32860   0.32013  -0.27815  -0.25020
                          Y71       X68       X52       X51       Y53
   1                    0.23488  -0.21641   0.20341   0.20299  -0.19973
 Eigenvalue     8 is   4.36D-08 Eigenvector:
                          Y47       X50       Y49       Y44       X49
   1                    0.35933  -0.33988  -0.26851  -0.25833  -0.23766
                          Y60       Y42       Y46       X47       Y50
   1                   -0.23188   0.22256   0.21478   0.20325  -0.19270
 Eigenvalue     9 is   8.76D-08 Eigenvector:
                          Y45       Y59       Y46       Y40       X45
   1                    0.29921  -0.22738   0.20510   0.19422   0.18290
                          Y48       Z69       Y44       Z70       Y41
   1                   -0.17808  -0.15285   0.14984  -0.14945   0.14164
 Eigenvalue    10 is   1.15D-07 Eigenvector:
                          X60       Y48       X59       Y59       X48
   1                    0.22657   0.19459   0.19303   0.18015   0.17949
                          Y45       X45       X58       Y73       Y47
   1                   -0.17475  -0.15494   0.15480   0.13994   0.13470
 Eigenvalue    11 is   1.74D-07 Eigenvector:
                          Y64       Y62       Y61       Y63       Y37
   1                    0.25012   0.21051   0.20260   0.18881   0.15284
                          Y45       Y46       Z76       Z60       Y7
   1                    0.14912   0.14714  -0.14624   0.14461  -0.14434
 Eigenvalue    12 is   4.04D-06 Eigenvector:
                          X52       X66       X56       Z67       Z57
   1                    0.34321   0.33026  -0.30986  -0.30445   0.30297
                          X70       Z71       Y52       Y67       Y57
   1                   -0.28145   0.24346  -0.20125  -0.19418   0.18525
 Quadratic step=7.559D+00 exceeds max=3.000D-01 adjusted using Lamda=-2.540D-03.
 Angle between NR and scaled steps=  13.25 degrees.
 Angle between quadratic step and forces=  66.04 degrees.
 Linear search not attempted -- first point.
 B after Tr=    -0.000460    0.000851    0.000107
         Rot=    1.000000    0.000163    0.000033   -0.000035 Ang=   0.02 deg.
 Variable       Old X    -DE/DX   Delta X   Delta X   Delta X     New X
                                 (Linear)    (Quad)   (Total)
    X1       -9.33627   0.00000   0.00000   0.00564   0.00517  -9.33109
    Y1        0.48579  -0.00011   0.00000   0.00620   0.00626   0.49206
    Z1       -0.42103  -0.00011   0.00000   0.01809   0.01742  -0.40361
    X2       -9.60062   0.00006   0.00000   0.00254   0.00235  -9.59827
    Y2       -1.88088   0.00000   0.00000   0.00560   0.00510  -1.87578
    Z2       -2.06649   0.00011   0.00000   0.01992   0.02000  -2.04649
    X3       -7.04821   0.00002   0.00000   0.00040   0.00034  -7.04786
    Y3       -2.62591  -0.00005   0.00000   0.00552   0.00483  -2.62108
    Z3       -3.21826   0.00001   0.00000   0.01592   0.01642  -3.20184
    X4       -5.16662   0.00000   0.00000   0.00394   0.00377  -5.16286
    Y4       -3.07714   0.00014   0.00000   0.00576   0.00590  -3.07123
    Z4       -1.08240   0.00017   0.00000   0.01311   0.01388  -1.06852
    X5       -4.78492  -0.00007   0.00000   0.00668   0.00623  -4.77869
    Y5       -0.64682   0.00003   0.00000   0.00553   0.00622  -0.64060
    Z5        0.52243  -0.00007   0.00000   0.01217   0.01217   0.53460
    X6       -7.34612   0.00004   0.00000   0.00869   0.00811  -7.33801
    Y6        0.12638   0.00010   0.00000   0.00733   0.00821   0.13459
    Z6        1.64945   0.00016   0.00000   0.01572   0.01530   1.66474
    X7       -7.22306  -0.00001   0.00000  -0.00152  -0.00138  -7.22444
    Y7       -4.31793   0.00004   0.00000   0.00589   0.00480  -4.31313
    Z7       -4.39991   0.00003   0.00000   0.01574   0.01677  -4.38313
    X8      -10.31229   0.00001   0.00000   0.00407   0.00391 -10.30838
    Y8       -3.45330   0.00002   0.00000   0.00596   0.00579  -3.44752
    Z8       -0.91495   0.00003   0.00000   0.02126   0.02180  -0.89314
    X9      -10.97857  -0.00000   0.00000   0.00021   0.00010 -10.97847
    Y9       -1.56583   0.00004   0.00000   0.00583   0.00474  -1.56108
    Z9       -3.57750   0.00006   0.00000   0.02207   0.02196  -3.55554
   X10       -8.76977   0.00001   0.00000   0.00406   0.00356  -8.76621
   Y10        2.08153   0.00004   0.00000   0.00558   0.00529   2.08682
   Z10       -1.62378   0.00004   0.00000   0.01643   0.01527  -1.60852
   X11      -11.16545   0.00001   0.00000   0.00701   0.00645 -11.15900
   Y11        0.97523   0.00003   0.00000   0.00714   0.00735   0.98258
   Z11        0.41474   0.00007   0.00000   0.02064   0.01968   0.43442
   X12       -5.86989   0.00004   0.00000   0.00731   0.00716  -5.86272
   Y12       -4.58087  -0.00003   0.00000   0.00497   0.00546  -4.57541
   Z12        0.14679   0.00009   0.00000   0.01434   0.01555   0.16234
   X13       -4.27029  -0.00004   0.00000   0.00527   0.00481  -4.26548
   Y13        0.82995  -0.00018   0.00000   0.00417   0.00445   0.83440
   Z13       -0.84662   0.00015   0.00000   0.01118   0.01073  -0.83588
   X14       -7.96053   0.00002   0.00000   0.01006   0.00949  -7.95104
   Y14       -1.32164   0.00002   0.00000   0.00833   0.00961  -1.31203
   Z14        3.00094   0.00002   0.00000   0.01736   0.01736   3.01830
   X15       -7.06858   0.00005   0.00000   0.01106   0.01029  -7.05829
   Y15        1.89417   0.00002   0.00000   0.00788   0.00912   1.90328
   Z15        2.69615   0.00003   0.00000   0.01414   0.01316   2.70931
   X16       -6.40651  -0.00005   0.00000  -0.00234  -0.00243  -6.40894
   Y16       -1.06522   0.00004   0.00000   0.00596   0.00492  -1.06030
   Z16       -4.42852   0.00002   0.00000   0.01495   0.01498  -4.41354
   X17       -2.64962  -0.00003   0.00000   0.00225   0.00220  -2.64743
   Y17       -3.93585  -0.00006   0.00000   0.00710   0.00713  -3.92872
   Z17       -1.95522   0.00007   0.00000   0.00695   0.00816  -1.94707
   X18       -1.40227  -0.00000   0.00000   0.00010   0.00007  -1.40220
   Y18       -2.66790   0.00004   0.00000   0.01312   0.01264  -2.65526
   Z18       -3.79100  -0.00001   0.00000   0.00951   0.01039  -3.78061
   X19       -1.33666   0.00002   0.00000   0.00386   0.00382  -1.33284
   Y19       -5.52938   0.00003   0.00000   0.00102   0.00163  -5.52774
   Z19       -0.44441  -0.00004   0.00000  -0.00088   0.00094  -0.44346
   X20        1.13950   0.00002   0.00000  -0.00091  -0.00088   1.13862
   Y20       -2.92150   0.00002   0.00000   0.01185   0.01143  -2.91007
   Z20       -4.15356   0.00001   0.00000   0.00356   0.00470  -4.14887
   X21       -2.52632   0.00002   0.00000  -0.00042  -0.00046  -2.52677
   Y21       -1.39456   0.00009   0.00000   0.01932   0.01839  -1.37617
   Z21       -4.93082   0.00005   0.00000   0.01689   0.01728  -4.91355
   X22        1.20884  -0.00000   0.00000   0.00288   0.00288   1.21172
   Y22       -5.87709  -0.00004   0.00000  -0.00162  -0.00091  -5.87800
   Z22       -0.68792   0.00001   0.00000  -0.00781  -0.00571  -0.69363
   X23       -2.41316   0.00001   0.00000   0.00610   0.00602  -2.40714
   Y23       -6.43748   0.00001   0.00000  -0.00223  -0.00120  -6.43869
   Z23        1.04494   0.00003   0.00000  -0.00119   0.00086   1.04580
   X24        2.58656  -0.00001   0.00000   0.00070   0.00071   2.58728
   Y24       -4.43717  -0.00006   0.00000   0.00265   0.00287  -4.43430
   Z24       -2.47144  -0.00005   0.00000  -0.00618  -0.00445  -2.47589
   X25        2.03147  -0.00000   0.00000  -0.00269  -0.00265   2.02883
   Y25       -1.86620   0.00006   0.00000   0.01719   0.01634  -1.84986
   Z25       -5.66081   0.00002   0.00000   0.00623   0.00707  -5.65373
   X26        2.13953   0.00002   0.00000   0.00440   0.00439   2.14392
   Y26       -7.10053   0.00001   0.00000  -0.00688  -0.00567  -7.10620
   Z26        0.65745  -0.00001   0.00000  -0.01363  -0.01107   0.64639
   X27        5.11704   0.00001   0.00000   0.00041   0.00044   5.11748
   Y27       -4.47837   0.00008   0.00000  -0.00149  -0.00111  -4.47948
   Z27       -2.53981  -0.00001   0.00000  -0.01390  -0.01199  -2.55180
   X28        6.56865   0.00002   0.00000   0.00520   0.00517   6.57383
   Y28       -5.65705  -0.00007   0.00000  -0.01741  -0.01626  -5.67331
   Z28       -0.49176  -0.00007   0.00000  -0.02646  -0.02407  -0.51583
   X29        6.27238  -0.00001   0.00000  -0.00113  -0.00101   6.27137
   Y29       -7.70315  -0.00003   0.00000  -0.01660  -0.01547  -7.71862
   Z29       -0.46765  -0.00009   0.00000  -0.03703  -0.03399  -0.50164
   X30        5.94595   0.00004   0.00000   0.01557   0.01537   5.96132
   Y30       -4.86115  -0.00007   0.00000  -0.02595  -0.02425  -4.88540
   Z30        1.32279  -0.00004   0.00000  -0.01913  -0.01703   1.30576
   X31        6.58798   0.00002   0.00000   0.00024   0.00021   6.58820
   Y31       -2.50744   0.00003   0.00000   0.00284   0.00291  -2.50453
   Z31       -3.83376  -0.00001   0.00000  -0.00754  -0.00618  -3.83994
   X32        6.98853  -0.00002   0.00000  -0.00970  -0.00956   6.97897
   Y32       -3.07961   0.00003   0.00000   0.01428   0.01374  -3.06587
   Z32       -5.78572  -0.00004   0.00000  -0.01296  -0.01139  -5.79711
   X33        5.52968  -0.00001   0.00000   0.00509   0.00494   5.53461
   Y33       -0.73348   0.00004   0.00000   0.00583   0.00583  -0.72765
   Z33       -3.83040   0.00003   0.00000   0.00855   0.00926  -3.82114
   X34       -2.65750   0.00018   0.00000   0.00955   0.00899  -2.64851
   Y34       -0.78700   0.00012   0.00000   0.00443   0.00583  -0.78116
   Z34        2.24188  -0.00009   0.00000   0.00857   0.00875   2.25063
   X35       -2.73838  -0.00006   0.00000   0.00921   0.00863  -2.72975
   Y35       -2.64501   0.00001   0.00000   0.00103   0.00318  -2.64183
   Z35        4.57514   0.00000   0.00000   0.00593   0.00671   4.58185
   X36       -4.77490  -0.00001   0.00000   0.00666   0.00622  -4.76868
   Y36       -4.55768   0.00005   0.00000   0.00392   0.00589  -4.55179
   Z36        4.44979  -0.00000   0.00000   0.00322   0.00449   4.45429
   X37       -0.17510   0.00011   0.00000   0.00816   0.00763  -0.16748
   Y37       -3.72433  -0.00006   0.00000  -0.00305  -0.00058  -3.72491
   Z37        4.99965   0.00002   0.00000   0.00277   0.00408   5.00373
   X38       -2.03493  -0.00007   0.00000  -0.02584  -0.02666  -2.06159
   Y38        5.12469   0.00007   0.00000  -0.00754  -0.00683   5.11786
   Z38        0.02203  -0.00004   0.00000  -0.01921  -0.02091   0.00112
   X39       -0.65269   0.00002   0.00000   0.00266   0.00205  -0.65064
   Y39        3.84610   0.00009   0.00000   0.01029   0.01050   3.85660
   Z39       -1.83071   0.00003   0.00000  -0.01017  -0.01136  -1.84207
   X40       -1.55027   0.00002   0.00000   0.02866   0.02823  -1.52205
   Y40        3.74459  -0.00001   0.00000   0.01265   0.01198   3.75657
   Z40       -4.30480  -0.00009   0.00000  -0.01975  -0.02097  -4.32577
   X41       -3.85202   0.00006   0.00000   0.02825   0.02778  -3.82424
   Y41        4.85461   0.00002   0.00000   0.00004  -0.00101   4.85361
   Z41       -4.94734  -0.00012   0.00000  -0.03977  -0.04150  -4.98884
   X42       -5.24930   0.00001   0.00000   0.00115   0.00047  -5.24883
   Y42        6.10181  -0.00004   0.00000  -0.01546  -0.01601   6.08581
   Z42       -3.09490  -0.00021   0.00000  -0.04984  -0.05207  -3.14697
   X43       -4.33513  -0.00000   0.00000  -0.02602  -0.02688  -4.36200
   Y43        6.23782  -0.00002   0.00000  -0.01979  -0.01947   6.21835
   Z43       -0.63106  -0.00007   0.00000  -0.03934  -0.04155  -0.67261
   X44        1.07157  -0.00003   0.00000   0.00363   0.00305   1.07462
   Y44        2.85929   0.00006   0.00000   0.01966   0.02017   2.87946
   Z44       -1.29830  -0.00003   0.00000   0.00356   0.00280  -1.29550
   X45       -0.44656   0.00013   0.00000   0.04968   0.04941  -0.39715
   Y45        2.77784   0.00003   0.00000   0.02419   0.02314   2.80098
   Z45       -5.74447  -0.00002   0.00000  -0.01141  -0.01224  -5.75670
   X46       -4.55212   0.00013   0.00000   0.04886   0.04852  -4.50360
   Y46        4.75655  -0.00002   0.00000   0.00193   0.00021   4.75676
   Z46       -6.87412  -0.00012   0.00000  -0.04731  -0.04906  -6.92318
   X47       -7.05251  -0.00001   0.00000   0.00076   0.00005  -7.05246
   Y47        6.96241  -0.00007   0.00000  -0.02491  -0.02574   6.93667
   Z47       -3.56538  -0.00019   0.00000  -0.06574  -0.06837  -3.63375
   X48       -5.43500  -0.00011   0.00000  -0.04761  -0.04863  -5.48363
   Y48        7.19732  -0.00008   0.00000  -0.03261  -0.03189   7.16543
   Z48        0.81761  -0.00015   0.00000  -0.04731  -0.04991   0.76770
   X49        0.48237  -0.00009   0.00000  -0.02362  -0.02453   0.45784
   Y49        3.21966  -0.00044   0.00000   0.01010   0.01208   3.23173
   Z49        3.35685  -0.00011   0.00000  -0.00897  -0.00988   3.34697
   X50       -0.48409   0.00023   0.00000   0.00932   0.00855  -0.47554
   Y50        1.66207   0.00059   0.00000  -0.00195  -0.00020   1.66187
   Z50        2.89045   0.00004   0.00000  -0.03166  -0.03213   2.85832
   X51        4.51338   0.00006   0.00000  -0.01516  -0.01583   4.49755
   Y51        0.38843  -0.00008   0.00000   0.01003   0.01208   0.40052
   Z51        2.69702   0.00003   0.00000   0.02678   0.02706   2.72407
   X52        3.92390  -0.00017   0.00000  -0.03877  -0.03924   3.88466
   Y52       -0.38828   0.00008   0.00000   0.02054   0.02188  -0.36640
   Z52        0.60823   0.00019   0.00000   0.02964   0.03012   0.63835
   X53        3.87337  -0.00006   0.00000  -0.00691  -0.00764   3.86573
   Y53       -0.73724   0.00007   0.00000   0.00902   0.01173  -0.72551
   Z53        4.83201   0.00001   0.00000   0.02859   0.02919   4.86120
   X54        2.49922  -0.00003   0.00000  -0.01752  -0.01814   2.48108
   Y54       -1.99890   0.00005   0.00000   0.01907   0.02159  -1.97730
   Z54        4.55651   0.00009   0.00000   0.03559   0.03650   4.59301
   X55        6.15563  -0.00005   0.00000   0.00160   0.00074   6.15637
   Y55        2.68466   0.00007   0.00000  -0.00062   0.00169   2.68635
   Z55        3.12151   0.00004   0.00000   0.02048   0.02012   3.14163
   X56        5.39405   0.00004   0.00000   0.01849   0.01745   5.41150
   Y56        3.68801   0.00001   0.00000   0.00032   0.00312   3.69113
   Z56        4.75945   0.00006   0.00000   0.02774   0.02700   4.78645
   X57        8.05377   0.00002   0.00000   0.00120   0.00036   8.05413
   Y57        2.02153  -0.00004   0.00000  -0.01312  -0.01050   2.01103
   Z57        3.64800   0.00003   0.00000   0.00644   0.00642   3.65443
   X58       -1.07866  -0.00112   0.00000  -0.05647  -0.05748  -1.13613
   Y58        5.25384  -0.00071   0.00000  -0.01470  -0.01305   5.24079
   Z58        2.71994   0.00032   0.00000  -0.00798  -0.00966   2.71028
   X59       -2.72058   0.00058   0.00000  -0.06973  -0.07083  -2.79141
   Y59        5.39955  -0.00007   0.00000  -0.05449  -0.05254   5.34701
   Z59        4.00112  -0.00059   0.00000  -0.02496  -0.02678   3.97434
   X60        0.04019  -0.00025   0.00000  -0.09245  -0.09360  -0.05341
   Y60        6.98191   0.00037   0.00000   0.00563   0.00745   6.98937
   Z60        2.97571   0.00019   0.00000   0.01948   0.01730   2.99301
   X61       -3.30577   0.00000   0.00000   0.01180   0.01090  -3.29487
   Y61       -0.75309  -0.00011   0.00000  -0.00362  -0.00061  -0.75370
   Z61        7.32250   0.00003   0.00000   0.00986   0.00999   7.33249
   X62       -1.86096   0.00007   0.00000   0.01303   0.01203  -1.84893
   Y62        0.72146   0.00007   0.00000  -0.00454  -0.00142   0.72004
   Z62        7.35326   0.00005   0.00000   0.01259   0.01234   7.36561
   X63       -5.18836   0.00000   0.00000   0.01242   0.01148  -5.17688
   Y63        0.07455   0.00003   0.00000  -0.00147   0.00135   0.07590
   Z63        7.15681   0.00005   0.00000   0.01230   0.01203   7.16884
   X64       -3.17631   0.00001   0.00000   0.01096   0.01004  -3.16627
   Y64       -1.94918  -0.00001   0.00000  -0.00694  -0.00338  -1.95256
   Z64        8.99657   0.00002   0.00000   0.00754   0.00807   9.00464
   X65        6.26964  -0.00001   0.00000  -0.00327  -0.00410   6.26554
   Y65        4.39873  -0.00000   0.00000   0.00411   0.00568   4.40442
   Z65        0.81277   0.00005   0.00000   0.02381   0.02290   0.83567
   X66        6.93849  -0.00002   0.00000  -0.01867  -0.01932   6.91917
   Y66        3.31449   0.00001   0.00000   0.00452   0.00559   3.32008
   Z66       -0.82222   0.00004   0.00000   0.01718   0.01666  -0.80556
   X67        4.34129  -0.00003   0.00000  -0.00292  -0.00376   4.33752
   Y67        5.00178   0.00005   0.00000   0.01546   0.01675   5.01854
   Z67        0.36177   0.00011   0.00000   0.03725   0.03601   0.39778
   X68        7.95382   0.00002   0.00000   0.01155   0.01054   7.96436
   Y68        6.69846   0.00000   0.00000  -0.00580  -0.00397   6.69448
   Z68        1.24382   0.00006   0.00000   0.01935   0.01780   1.26162
   X69        8.01127   0.00002   0.00000   0.00668   0.00569   8.01695
   Y69        7.91328   0.00002   0.00000  -0.00097   0.00032   7.91361
   Z69       -0.42751   0.00005   0.00000   0.02264   0.02070  -0.40682
   X70        7.25827   0.00008   0.00000   0.02812   0.02691   7.28518
   Y70        7.83360  -0.00002   0.00000  -0.00697  -0.00467   7.82893
   Z70        2.82801   0.00007   0.00000   0.02744   0.02548   2.85349
   X71        9.89582   0.00004   0.00000   0.01160   0.01059   9.90641
   Y71        6.13263  -0.00005   0.00000  -0.01723  -0.01513   6.11750
   Z71        1.68520   0.00000   0.00000   0.00458   0.00335   1.68855
   X72        9.29271   0.00003   0.00000   0.00478   0.00474   9.29745
   Y72       -4.92274  -0.00002   0.00000  -0.02285  -0.02171  -4.94445
   Z72       -1.09035  -0.00010   0.00000  -0.03494  -0.03261  -1.12296
   X73       10.48407   0.00004   0.00000   0.01314   0.01300  10.49707
   Y73       -4.94216  -0.00011   0.00000  -0.03793  -0.03615  -4.97832
   Z73        0.59396  -0.00012   0.00000  -0.04106  -0.03863   0.55533
   X74       10.09692  -0.00004   0.00000  -0.00688  -0.00674  10.09018
   Y74       -6.23608  -0.00005   0.00000  -0.01673  -0.01599  -6.25207
   Z74       -2.47250  -0.00013   0.00000  -0.04755  -0.04473  -2.51723
   X75        8.99627   0.00002   0.00000   0.00772   0.00757   9.00384
   Y75       -2.28766  -0.00008   0.00000  -0.01456  -0.01381  -2.30148
   Z75       -2.24577   0.00001   0.00000  -0.01652  -0.01506  -2.26083
   X76        8.66927   0.00003   0.00000   0.01800   0.01765   8.68692
   Y76       -0.90079  -0.00009   0.00000  -0.02341  -0.02219  -0.92298
   Z76       -0.74741  -0.00005   0.00000  -0.00626  -0.00528  -0.75268
   X77       10.62557   0.00002   0.00000   0.00458   0.00446  10.63004
   Y77       -1.69129  -0.00002   0.00000  -0.01194  -0.01144  -1.70272
   Z77       -3.36260  -0.00006   0.00000  -0.01977  -0.01841  -3.38100
         Item               Value     Threshold  Converged?
 Maximum Force            0.001119     0.000450     NO 
 RMS     Force            0.000136     0.000300     YES
 Maximum Displacement     0.093602     0.001800     NO 
 RMS     Displacement     0.019707     0.001200     NO 
 Predicted change in Energy=-2.446879D-04
 GradGradGradGradGradGradGradGradGradGradGradGradGradGradGradGradGradGrad

 Leave Link  103 at Fri Feb  8 02:02:21 2019, MaxMem=   104857600 cpu:              25.3 elap:               1.1
 (Enter /home/xinyan/g16/l9999.exe)
 1\1\GINC-TSE4\Force\RM062X\6-31G(d)\C27H41N3O5S1\STEVETSE\08-Feb-2019\
 0\\#p M062X/6-31G* em=gd3 force int=ultrafine\\Title\\0,1\C,-4.94054,0
 .25707,-0.2228\C,-5.08043,-0.99532,-1.09354\C,-3.72975,-1.38957,-1.703
 03\C,-2.73406,-1.62835,-0.57278\C,-2.53207,-0.34228,0.27646\C,-3.8874,
 0.06688,0.87285\H,-3.82228,-2.28495,-2.32833\H,-5.45703,-1.82741,-0.48
 417\H,-5.80961,-0.8286,-1.89313\H,-4.64076,1.1015,-0.85927\H,-5.9085,0
 .51607,0.21947\H,-3.10621,-2.42409,0.07768\H,-2.25974,0.43919,-0.44801
 \H,-4.21253,-0.69938,1.58803\H,-3.74053,1.00235,1.42674\H,-3.39018,-0.
 56369,-2.34347\N,-1.40212,-2.08276,-1.03466\C,-0.74205,-1.41179,-2.006
 11\C,-0.70733,-2.92602,-0.23517\C,0.603,-1.54599,-2.19797\H,-1.33687,-
 0.73797,-2.60928\C,0.63969,-3.11002,-0.36403\H,-1.27699,-3.40657,0.552
 96\C,1.36875,-2.34805,-1.30783\H,1.07501,-0.98755,-2.99557\H,1.13219,-
 3.75744,0.34791\N,2.70782,-2.36985,-1.34401\C,3.47598,-2.99358,-0.2602
 3\H,3.3192,-4.07633,-0.24747\H,3.14646,-2.57241,0.69999\C,3.48621,-1.3
 2688,-2.02874\H,3.69817,-1.62966,-3.06167\H,2.92618,-0.38814,-2.02696\
 N,-1.40629,-0.41646,1.18635\S,-1.44909,-1.39968,2.42106\O,-2.52677,-2.
 41182,2.35473\O,-0.09266,-1.97083,2.6457\C,-1.07684,2.71187,0.01166\C,
 -0.34539,2.03527,-0.96877\C,-0.82037,1.98155,-2.278\C,-2.0384,2.56895,
 -2.61802\C,-2.77781,3.22894,-1.63775\C,-2.29405,3.30091,-0.33394\H,0.5
 6705,1.51307,-0.68703\H,-0.23631,1.46997,-3.03984\H,-2.40888,2.51706,-
 3.63763\H,-3.73203,3.68435,-1.88672\H,-2.87608,3.80866,0.43266\O,0.255
 26,1.70377,1.77637\H,-0.25617,0.87953,1.52956\C,2.38838,0.20555,1.4272
 \O,2.07644,-0.20547,0.32186\O,2.0497,-0.39013,2.55699\H,1.32253,-1.057
 77,2.4112\C,3.25742,1.42066,1.65183\H,2.85441,1.95161,2.51859\H,4.2618
 7,1.06975,1.93044\C,-0.5708,2.78021,1.43933\H,-1.43967,2.85732,2.1173\
 H,0.02127,3.69467,1.57468\C,-1.74934,-0.39852,3.8749\H,-0.98478,0.3817
 8,3.89118\H,-2.74556,0.03945,3.78722\H,-1.68083,-1.03146,4.76078\C,3.3
 1775,2.32771,0.4301\H,3.67169,1.75395,-0.4351\H,2.29731,2.64683,0.1914
 4\C,4.20898,3.54467,0.6582\H,4.23938,4.18753,-0.22623\H,3.84091,4.1453
 6,1.49652\H,5.23664,3.24525,0.89177\C,4.91749,-2.605,-0.57699\H,5.5479
 3,-2.61528,0.31431\H,5.34306,-3.29999,-1.30839\C,4.76062,-1.21058,-1.1
 8841\H,4.58758,-0.47668,-0.39551\H,5.62281,-0.89499,-1.77941\\Version=
 ES64L-G16RevA.03\State=1-A\HF=-1991.3907933\RMSD=4.728e-09\RMSF=1.362e
 -04\Dipole=0.597139,-0.1960005,-2.5505874\Quadrupole=10.7163628,-5.743
 963,-4.9723998,-10.7860474,-0.6931957,9.147188\PG=C01 [X(C27H41N3O5S1)
 ]\\@


 A BIRD IN THE HAND IS SAFER THAN ONE OVERHEAD.

                       -- NEWTON'S SEVENTH LAW
 Job cpu time:       0 days  1 hours 19 minutes 40.8 seconds.
 Elapsed time:       0 days  0 hours  3 minutes 21.1 seconds.
 File lengths (MBytes):  RWF=    216 Int=      0 D2E=      0 Chk=     25 Scr=      1
 Normal termination of Gaussian 16 at Fri Feb  8 02:02:21 2019.
